 Gaussian 16, Revision C.01,
 Gaussian 16:  ES64L-G16RevC.01  3-Jul-2019

 ---------------
 #P M052X/6-31G*
 ---------------

 -----------------------
 Cl3F1_oct_vaccum_M05-2x
 -----------------------
 Symbolic Z-matrix:
 Charge =  0 Multiplicity = 1

                         Standard orientation:
 ---------------------------------------------------------------------
 Center     Atomic      Atomic             Coordinates (Angstroms)
 Number     Number       Type             X           Y           Z
 ---------------------------------------------------------------------
      1          6           0        0.509020    0.079272    0.000059
      2          6           0       -0.658744   -0.564563   -0.000047
      3         17           0        0.639478    1.800805   -0.000063
      4         17           0        1.996918   -0.808087    0.000335
      5          9           0       -0.712660   -1.891548    0.000035
      6         17           0       -2.206262    0.179968   -0.000294
 ---------------------------------------------------------------------

 SCF Done:  E(RM052X) =  -1556.49963281     A.U. after   15 cycles

 The electronic state is 1-A.
 Alpha  occ. eigenvalues -- -102.81278-102.80813-102.80482 -25.36289 -10.75825
 Alpha  occ. eigenvalues --  -10.72123  -9.85846  -9.85295  -9.84960  -7.58481
 Alpha  occ. eigenvalues --   -7.57946  -7.57809  -7.57793  -7.57613  -7.57246
 Alpha  occ. eigenvalues --   -7.57244  -7.56911  -7.56907  -1.41198  -1.06014
 Alpha  occ. eigenvalues --   -1.00469  -0.95828  -0.85662  -0.71130  -0.63356
 Alpha  occ. eigenvalues --   -0.61803  -0.61495  -0.53593  -0.51143  -0.49826
 Alpha  occ. eigenvalues --   -0.44255  -0.43407  -0.42576  -0.41360  -0.39234
 Alpha  occ. eigenvalues --   -0.31834
 Alpha virt. eigenvalues --    0.02015   0.03106   0.04225   0.09907   0.22938
 Alpha virt. eigenvalues --    0.30866   0.33465   0.36720   0.41468   0.43798
 Alpha virt. eigenvalues --    0.44124   0.45385   0.46552   0.47638   0.49089

 Mulliken charges:
               1
     1  C   -0.320026
     2  C    0.259505
     3  Cl   0.103368
     4  Cl   0.095545
     5  F   -0.228784
     6  Cl   0.090392
 Sum of Mulliken charges =  -0.00000

 Dipole moment (field-independent basis, Debye):
    X=             -0.3535    Y=              0.3089    Z=             -0.0001  Tot=              0.4694
 Quadrupole moment (field-independent basis, Debye-Ang):
   XX=            -51.8252   YY=            -53.1874   ZZ=            -53.3702
   XY=             -0.8912   XZ=              0.0003   YZ=             -0.0001

 Normal termination of Gaussian 16 at Thu Jul 10 14:00:41 2025.
