 Gaussian 16, Revision C.01,
 Gaussian 16:  ES64L-G16RevC.01  3-Jul-2019

 -------------------------------------------
 #P M052X/6-31G* scrf(SMD,solvent=n-octanol)
 -------------------------------------------

 ----------------
 Cl3F1_oct_M05-2x
 ----------------
 Symbolic Z-matrix:
 Charge =  0 Multiplicity = 1

                         Standard orientation:
 ---------------------------------------------------------------------
 Center     Atomic      Atomic             Coordinates (Angstroms)
 Number     Number       Type             X           Y           Z
 ---------------------------------------------------------------------
      1          6           0        0.509020    0.079272    0.000059
      2          6           0       -0.658744   -0.564563   -0.000047
      3         17           0        0.639478    1.800805   -0.000063
      4         17           0        1.996918   -0.808087    0.000335
      5          9           0       -0.712660   -1.891548    0.000035
      6         17           0       -2.206262    0.179968   -0.000294
 ---------------------------------------------------------------------

 SCF Done:  E(RM052X) =  -1556.50234167     A.U. after   12 cycles

 The electronic state is 1-A.
 Alpha  occ. eigenvalues -- -102.81046-102.80713-102.80444 -25.36175 -10.75630
 Alpha  occ. eigenvalues --  -10.71883  -9.85611  -9.85191  -9.84921  -7.58245
 Alpha  occ. eigenvalues --   -7.57841  -7.57573  -7.57571  -7.57560  -7.57143
 Alpha  occ. eigenvalues --   -7.57143  -7.56873  -7.56871  -1.41075  -1.05848
 Alpha  occ. eigenvalues --   -1.00265  -0.95738  -0.85468  -0.71026  -0.63187
 Alpha  occ. eigenvalues --   -0.61679  -0.61315  -0.53471  -0.50980  -0.49669
 Alpha  occ. eigenvalues --   -0.44038  -0.43269  -0.42485  -0.41307  -0.39170
 Alpha  occ. eigenvalues --   -0.31629
 Alpha virt. eigenvalues --    0.02293   0.03314   0.04396   0.10158   0.23165
 Alpha virt. eigenvalues --    0.30982   0.33617   0.36791   0.41581   0.44126
 Alpha virt. eigenvalues --    0.44260   0.45471   0.46687   0.47741   0.49228

 Mulliken charges:
               1
     1  C   -0.317690
     2  C    0.271647
     3  Cl   0.099764
     4  Cl   0.088957
     5  F   -0.233150
     6  Cl   0.090472
 Sum of Mulliken charges =  -0.00000

 Dipole moment (field-independent basis, Debye):
    X=             -0.4445    Y=              0.3235    Z=             -0.0001  Tot=              0.5498
 Quadrupole moment (field-independent basis, Debye-Ang):
   XX=            -51.8895   YY=            -53.3122   ZZ=            -53.3662
   XY=             -0.8971   XZ=              0.0003   YZ=             -0.0001

 Normal termination of Gaussian 16 at Thu Jul 10 14:00:43 2025.
