 Gaussian 16, Revision C.01,
 Gaussian 16:  ES64L-G16RevC.01  3-Jul-2019

 ---------------------------------------
 #P M052X/6-31G* scrf(SMD,solvent=water)
 ---------------------------------------

 ----------------
 Cl3F1_wat_M05-2x
 ----------------
 Symbolic Z-matrix:
 Charge =  0 Multiplicity = 1

                         Standard orientation:
 ---------------------------------------------------------------------
 Center     Atomic      Atomic             Coordinates (Angstroms)
 Number     Number       Type             X           Y           Z
 ---------------------------------------------------------------------
      1          6           0        0.508814    0.079745    0.000063
      2          6           0       -0.658057   -0.564982   -0.000046
      3         17           0        0.637210    1.801066   -0.000061
      4         17           0        1.997041   -0.806716    0.000332
      5          9           0       -0.710383   -1.891873    0.000038
      6         17           0       -2.205492    0.178490   -0.000297
 ---------------------------------------------------------------------

 SCF Done:  E(RM052X) =  -1556.49586970     A.U. after   12 cycles

 The electronic state is 1-A.
 Alpha  occ. eigenvalues -- -102.81010-102.80697-102.80434 -25.36150 -10.75580
 Alpha  occ. eigenvalues --  -10.71824  -9.85575  -9.85175  -9.84911  -7.58209
 Alpha  occ. eigenvalues --   -7.57824  -7.57560  -7.57537  -7.57524  -7.57127
 Alpha  occ. eigenvalues --   -7.57127  -7.56863  -7.56862  -1.41056  -1.05831
 Alpha  occ. eigenvalues --   -1.00243  -0.95728  -0.85433  -0.71009  -0.63165
 Alpha  occ. eigenvalues --   -0.61661  -0.61285  -0.53453  -0.50957  -0.49644
 Alpha  occ. eigenvalues --   -0.44007  -0.43254  -0.42472  -0.41299  -0.39160
 Alpha  occ. eigenvalues --   -0.31586
 Alpha virt. eigenvalues --    0.02358   0.03369   0.04439   0.10215   0.23212
 Alpha virt. eigenvalues --    0.31002   0.33653   0.36799   0.41595   0.44177
 Alpha virt. eigenvalues --    0.44280   0.45477   0.46710   0.47756   0.49263

 Mulliken charges:
               1
     1  C   -0.316943
     2  C    0.274268
     3  Cl   0.098862
     4  Cl   0.087550
     5  F   -0.233933
     6  Cl   0.090197
 Sum of Mulliken charges =  -0.00000

 Dipole moment (field-independent basis, Debye):
    X=             -0.4616    Y=              0.3231    Z=             -0.0001  Tot=              0.5635
 Quadrupole moment (field-independent basis, Debye-Ang):
   XX=            -51.9141   YY=            -53.3399   ZZ=            -53.3620
   XY=             -0.8959   XZ=              0.0002   YZ=             -0.0001

 Normal termination of Gaussian 16 at Thu Jul 10 14:44:15 2025.
