 Gaussian 09, Revision D.01,
 Gaussian 09:  ES64L-G09RevD.01 24-Apr-2013

 ----------------------------------------------------------------------
 #p BLYP/gen IOp(3/76=1000001500) IOp(3/77=0720008500) IOp(3/78=0810010
 000) pseudo=read guess=read scf=xqc
 ----------------------------------------------------------------------

 -------------------
 Reactp_out_freq12_l
 -------------------
 Symbolic Z-matrix:
 Charge =  1 Multiplicity = 2

                         Standard orientation:
 ---------------------------------------------------------------------
 Center     Atomic      Atomic             Coordinates (Angstroms)
 Number     Number       Type             X           Y           Z
 ---------------------------------------------------------------------
      1          6           0        7.457311   -4.409962    3.946361
      2          6           0        6.585395   -3.308825    4.582959
      3          6           0        5.764460   -2.479414    3.620770
      4          6           0        6.035277   -1.121439    3.410866
      5          6           0        4.667245   -3.047763    2.955435
      6          6           0        5.226292   -0.343085    2.579412
      7          6           0        3.853762   -2.277494    2.125738
      8          6           0        4.127528   -0.919221    1.939848
      9          6           0       -3.498135    7.188516    1.544797
     10          6           0       -2.179067    6.520797    1.123404
     11          8           0       -2.100313    6.417742   -0.326676
     12          6           0       -2.034210    5.107788    1.673499
     13          6           0       -6.711525    2.927759    5.387876
     14          6           0       -5.267339    2.594390    5.818640
     15          6           0       -4.451960    1.946163    4.723435
     16          6           0       -4.830998    0.684089    4.243288
     17          6           0       -3.315145    2.534953    4.158413
     18          6           0       -4.112676    0.031025    3.248894
     19          6           0       -2.573147    1.888603    3.169580
     20          6           0       -2.945237    0.609998    2.692223
     21          8           0       -2.259201   -0.012012    1.735026
     22          6           0       -4.045281   -5.537930    3.752337
     23          6           0       -2.889120   -4.535099    3.803124
     24          6           0       -3.067435   -3.356622    2.845846
     25          8           0       -4.074877   -3.270739    2.122809
     26          7           0       -2.052234   -2.478126    2.784383
     27          6           0       -7.761333    1.441583   -2.167683
     28          6           0       -7.311271    1.805875   -0.741113
     29          6           0       -6.575798    3.148805   -0.665901
     30          6           0       -5.690331    3.255286    0.585163
     31          7           0       -4.551739    2.337599    0.540415
     32          6           0       -3.480698    2.487133   -0.253218
     33          7           0       -3.381646    3.579108   -1.059650
     34          7           0       -2.531827    1.556194   -0.292282
     35          6           0       10.035955    5.629928    0.674270
     36          6           0        8.697685    5.121017    1.223121
     37          6           0        7.860071    4.374628    0.225608
     38          6           0        8.161660    4.101895   -1.084325
     39          6           0        6.566692    3.784197    0.473576
     40          7           0        7.132530    3.378212   -1.670532
     41          6           0        6.142160    3.166208   -0.736012
     42          6           0        5.728630    3.716003    1.600374
     43          6           0        4.924927    2.488515   -0.836125
     44          6           0        4.514096    3.042162    1.505259
     45          6           0        4.121938    2.426755    0.298104
     46         27           0        1.085061   -1.612021   -2.028215
     47          6           0       -1.509789   -2.717130   -2.361054
     48          6           0       -2.992770   -2.207811   -2.322664
     49          6           0       -2.882552   -0.872711   -3.160754
     50          6           0       -1.427208   -0.477838   -2.984371
     51          6           0       -0.881784    0.830744   -3.311948
     52          6           0        0.472143    1.068889   -3.261244
     53          6           0        1.255093    2.362237   -3.651662
     54          6           0        2.618121    1.728100   -4.059966
     55          6           0        2.653590    0.502576   -3.190608
     56          6           0        3.833412   -0.146703   -2.873592
     57          6           0        3.961218   -1.346917   -2.187864
     58          6           0        5.316644   -1.971110   -1.936247
     59          6           0        4.924052   -3.337046   -1.280279
     60          6           0        3.402828   -3.266767   -1.161949
     61          6           0        2.627495   -4.242794   -0.567548
     62          6           0        1.186968   -4.213720   -0.641293
     63          6           0        0.204225   -5.265880   -0.074900
     64          6           0       -1.103007   -4.890808   -0.849150
     65          6           0       -0.930303   -3.389128   -1.096505
     66          6           0       -1.178250   -3.563829   -3.608132
     67          7           0       -0.724462   -1.452176   -2.477397
     68          7           0        1.413411    0.104691   -2.858743
     69          7           0        2.931269   -2.095866   -1.749695
     70          7           0        0.537524   -3.219026   -1.191898
     71          6           0       -3.993206   -3.239044   -2.870491
     72          6           0       -3.404913   -1.848672   -0.873540
     73          6           0       -4.813986   -1.279556   -0.766732
     74          8           0       -5.328585   -0.608922   -1.680112
     75          7           0       -5.455535   -1.552186    0.379687
     76          6           0       -3.345959   -0.948058   -4.626048
     77          6           0       -1.874027    1.892193   -3.744928
     78          6           0        0.714328    3.251608   -4.783776
     79          6           0        1.565690    3.254555   -2.397652
     80          6           0        0.376924    3.972963   -1.791162
     81          8           0       -0.587878    3.329175   -1.352561
     82          7           0        0.391897    5.317098   -1.731091
     83          6           0        2.723848    1.290860   -5.535833
     84          6           0        6.164664   -1.114073   -0.974376
     85          6           0        6.050374   -2.077740   -3.285488
     86          6           0        5.404611   -4.580600   -2.051558
     87          6           0        3.301276   -5.359741    0.207579
     88          6           0        0.051692   -5.031831    1.445405
     89          6           0        0.526451   -6.745142   -0.361243
     90          6           0       -2.399931   -5.324409   -0.168382
     91         17           0        1.104296    2.113177    3.904906
     92          6           0        0.839013    1.130227    2.508124
     93          6           0        0.831962   -0.214582    2.550503
     94         17           0        0.547407    2.000013    1.040841
     95         17           0        0.649966   -1.186473    1.129377
     96          1           0        7.224711   -2.647926    5.178935
     97          1           0        5.898322   -3.786072    5.294042
     98          1           0        6.880140   -0.663843    3.919765
     99          1           0        4.433327   -4.098159    3.115576
    100          1           0        5.448361    0.708718    2.428687
    101          1           0        2.998078   -2.726882    1.636535
    102          1           0        3.494378   -0.316125    1.297323
    103          1           0        8.286345   -3.991293    3.368791
    104          1           0       -1.329848    7.126736    1.472185
    105          1           0       -1.205911    4.581873    1.191257
    106          1           0       -2.942908    4.520538    1.523987
    107          1           0       -1.841691    5.143564    2.749241
    108          1           0       -2.331599    7.281446   -0.695731
    109          1           0       -4.301211    6.826373    0.891488
    110          1           0       -4.765450    3.497629    6.183865
    111          1           0       -5.308202    1.907036    6.673608
    112          1           0       -2.995696    3.515709    4.507284
    113          1           0       -5.708495    0.197625    4.665877
    114          1           0       -1.694865    2.363511    2.747763
    115          1           0       -4.423222   -0.946841    2.901944
    116          1           0       -7.077487    2.195913    4.660347
    117          1           0       -2.743135   -4.138680    4.815728
    118          1           0       -1.941399   -5.019386    3.539068
    119          1           0       -2.152206   -1.571475    2.263448
    120          1           0       -1.323924   -2.527345    3.482078
    121          1           0       -4.498906   -5.532947    2.758568
    122          1           0       -8.180661    1.829948   -0.072337
    123          1           0       -6.645610    1.014678   -0.386523
    124          1           0       -7.292338    3.979021   -0.669976
    125          1           0       -5.946211    3.274060   -1.554891
    126          1           0       -5.330507    4.283234    0.735641
    127          1           0       -6.254768    3.000251    1.486014
    128          1           0       -4.543305    1.546398    1.174684
    129          1           0       -1.684922    1.826127   -0.777609
    130          1           0       -2.406931    0.856872    0.527390
    131          1           0       -3.940040    4.385319   -0.824665
    132          1           0       -2.421277    3.814507   -1.303660
    133          1           0       -6.876873    1.197412   -2.766145
    134          1           0        8.119546    5.968427    1.617714
    135          1           0        8.884919    4.469746    2.088496
    136          1           0        9.037857    4.365626   -1.658066
    137          1           0        6.028484    4.183597    2.533899
    138          1           0        3.859230    2.978342    2.369543
    139          1           0        4.620254    2.009823   -1.757673
    140          1           0        3.181143    1.888909    0.256510
    141          1           0        9.886913    6.348881   -0.138016
    142          1           0       -3.510688   -0.123548   -2.680059
    143          1           0        3.449162    2.405030   -3.835264
    144          1           0        4.745886    0.319734   -3.220950
    145          1           0        5.345467   -3.371799   -0.268703
    146          1           0       -1.031101   -5.402995   -1.815222
    147          1           0       -1.255158   -2.824746   -0.217586
    148          1           0       -1.403768   -3.012501   -4.520897
    149          1           0       -1.740640   -4.498661   -3.626218
    150          1           0       -0.111114   -3.806122   -3.617507
    151          1           0       -5.003835   -2.826975   -2.849430
    152          1           0       -3.782737   -3.529410   -3.900674
    153          1           0       -3.987543   -4.143375   -2.259572
    154          1           0       -2.730298   -1.109052   -0.432177
    155          1           0       -3.355481   -2.725497   -0.226920
    156          1           0       -6.395829   -1.201596    0.497003
    157          1           0       -3.238845    0.018831   -5.121306
    158          1           0       -2.793740   -1.684661   -5.214729
    159          1           0       -1.542709    2.885801   -3.467783
    160          1           0       -2.043396    1.879112   -4.826936
    161          1           0       -2.838531    1.749502   -3.256567
    162          1           0        1.520515    3.899574   -5.142756
    163          1           0       -0.097571    3.902142   -4.457337
    164          1           0        0.350029    2.663111   -5.627717
    165          1           0        2.339281    3.974052   -2.685150
    166          1           0        1.991789    2.636934   -1.601427
    167          1           0       -0.378443    5.783080   -1.245358
    168          1           0        2.729993    2.149297   -6.211205
    169          1           0        1.889557    0.638012   -5.811476
    170          1           0        5.676164   -0.994853   -0.007587
    171          1           0        6.350286   -0.116268   -1.382871
    172          1           0        7.132510   -1.600025   -0.811784
    173          1           0        5.459665   -2.597898   -4.044207
    174          1           0        6.285863   -1.082552   -3.670482
    175          1           0        7.001043   -2.605160   -3.170013
    176          1           0        6.491696   -4.563977   -2.162085
    177          1           0        5.148256   -5.501909   -1.530629
    178          1           0        4.292332   -5.061093    0.550553
    179          1           0        2.732147   -5.609102    1.103407
    180          1           0        3.405928   -6.282576   -0.371743
    181          1           0       -0.355971   -4.043360    1.669082
    182          1           0       -0.624518   -5.782795    1.862742
    183          1           0        1.007527   -5.127311    1.965694
    184          1           0       -0.375690   -7.342299   -0.200055
    185          1           0        1.299158   -7.149625    0.294083
    186          1           0       -3.252323   -5.224717   -0.842064
    187          1           0       -2.623269   -4.736044    0.721005
    188         17           0        1.041074   -1.108012    4.017020
    189          1           0        4.960434   -4.629118   -3.049380
    190          1           0        0.843831   -6.891407   -1.398839
    191          1           0       -2.352620   -6.377606    0.124883
    192          1           0       -4.405456   -1.211843   -4.652181
    193          1           0        3.651843    0.733427   -5.689815
    194          1           0       -8.280112    2.284730   -2.632813
    195          1           0       -4.831084   -5.290081    4.469834
    196          1           0       -3.689854   -6.548481    3.953556
    197          1           0       -7.386380    2.878881    6.242401
    198          1           0       -6.785047    3.917245    4.925776
    199          1           0       -3.461595    8.279752    1.477329
    200          1           0       -3.768879    6.897654    2.559898
    201          1           0        6.868389   -5.055592    3.286425
    202          1           0        7.850095   -5.019481    4.760239
    203          1           0       10.644549    4.804372    0.290049
    204          1           0       10.600211    6.120560    1.467195
    205          1           0        7.126761    3.046904   -2.620427
    206          1           0        1.191333    5.852496   -2.030534
    207          1           0       -5.020089   -2.137640    1.097474
    208          6           0       -8.745584    0.281133   -2.139080
    209          8           0       -9.954075    0.430911   -2.287654
    210          7           0       -8.159307   -0.914127   -1.849151
    211          1           0       -7.143272   -0.949775   -1.868311
    212          6           0       -8.930987   -2.131282   -1.784922
    213          1           0       -8.470817   -2.830215   -1.078937
    214          1           0       -9.941426   -1.890392   -1.448979
    215          1           0       -9.013765   -2.629694   -2.760694
 ---------------------------------------------------------------------

 SCF Done:  E(UB+HF-LYP) =  -6095.96164666     A.U. after   65 cycles
 SCF Done:  E(UB+HF-LYP) =  -6095.96164667     a.u. after    1 cycles

 Alpha virt. eigenvalues --    3.30335   3.30538   3.30957   3.31073   3.31144
 Alpha virt. eigenvalues --    3.31301   3.31367   3.31788   3.31991   3.32064
 Alpha virt. eigenvalues --    3.32162   3.32262   3.32490   3.32712   3.32945

  Beta  occ. eigenvalues -- -101.42015-101.41943-101.41860-101.41668 -19.12310
  Beta  occ. eigenvalues --  -19.09424 -19.05607 -19.05501 -19.01638 -19.01520
  Beta  occ. eigenvalues --  -14.34600 -14.34328 -14.34262 -14.33567 -14.33282
  Beta  occ. eigenvalues --  -14.33220 -14.33024 -14.31927 -14.30046 -14.29282
  Beta  occ. eigenvalues --  -14.28754 -14.27313 -10.30444 -10.29963 -10.29565
  Beta  occ. eigenvalues --  -10.29426 -10.26492 -10.25852 -10.23990 -10.23894
  Beta  occ. eigenvalues --  -10.23869 -10.23678 -10.23612 -10.23419 -10.23355
  Beta  occ. eigenvalues --  -10.22848 -10.22712 -10.22003 -10.21285 -10.21065
  Beta  occ. eigenvalues --  -10.20683 -10.20523 -10.20485 -10.20180 -10.19823
  Beta  occ. eigenvalues --  -10.19681 -10.19582 -10.19400 -10.19333 -10.18877
  Beta  occ. eigenvalues --  -10.18491 -10.18220 -10.18085 -10.18072 -10.18046
  Beta  occ. eigenvalues --  -10.17985 -10.17286 -10.16932 -10.16869 -10.16736
  Beta  occ. eigenvalues --  -10.16668 -10.16647 -10.16626 -10.16622 -10.16538
  Beta  occ. eigenvalues --  -10.16428 -10.16336 -10.16263 -10.16127 -10.16087
  Beta  occ. eigenvalues --  -10.15946 -10.15924 -10.15909 -10.15832 -10.15826
  Beta  occ. eigenvalues --  -10.15782 -10.15743 -10.15691 -10.15678 -10.15616
  Beta  occ. eigenvalues --  -10.15616 -10.15580 -10.15556 -10.15517 -10.15485
  Beta  occ. eigenvalues --  -10.15444 -10.15303 -10.14564 -10.14260 -10.13856
  Beta  occ. eigenvalues --  -10.13825 -10.13801 -10.13683 -10.13657 -10.13615
  Beta  occ. eigenvalues --  -10.13576 -10.12757 -10.12746 -10.12675  -9.49052
  Beta  occ. eigenvalues --   -9.48886  -9.48872  -9.48603  -7.27505  -7.27349
  Beta  occ. eigenvalues --   -7.27324  -7.27073  -7.26408  -7.26377  -7.26261
  Beta  occ. eigenvalues --   -7.26241  -7.26211  -7.26188  -7.25974  -7.25928
  Beta  occ. eigenvalues --   -3.75317  -2.46866  -2.46728  -2.43299  -1.12121
  Beta  occ. eigenvalues --   -1.09335  -1.08052  -1.07463  -1.06332  -1.04502
  Beta  occ. eigenvalues --   -1.04054  -1.03307  -1.03055  -1.02560  -1.01177
  Beta  occ. eigenvalues --   -1.00672  -1.00174  -0.98856  -0.96378  -0.95255
  Beta  occ. eigenvalues --   -0.94881  -0.93811  -0.93482  -0.93131  -0.91212
  Beta  occ. eigenvalues --   -0.90432  -0.90028  -0.89928  -0.89081  -0.88902
  Beta  occ. eigenvalues --   -0.88557  -0.88085  -0.87963  -0.87252  -0.86877
  Beta  occ. eigenvalues --   -0.86466  -0.84995  -0.84182  -0.83806  -0.83364
  Beta  occ. eigenvalues --   -0.82722  -0.82612  -0.81338  -0.81234  -0.80217
  Beta  occ. eigenvalues --   -0.79889  -0.79887  -0.79722  -0.78944  -0.78872
  Beta  occ. eigenvalues --   -0.78733  -0.78576  -0.78194  -0.77070  -0.76680
  Beta  occ. eigenvalues --   -0.76633  -0.76513  -0.75973  -0.75565  -0.75465
  Beta  occ. eigenvalues --   -0.75454  -0.75176  -0.74742  -0.73922  -0.73480
  Beta  occ. eigenvalues --   -0.72997  -0.72845  -0.72354  -0.71880  -0.71583
  Beta  occ. eigenvalues --   -0.70377  -0.69424  -0.68661  -0.68547  -0.68028
  Beta  occ. eigenvalues --   -0.67782  -0.67759  -0.67545  -0.67435  -0.66181
  Beta  occ. eigenvalues --   -0.65276  -0.65218  -0.64982  -0.64512  -0.64287
  Beta  occ. eigenvalues --   -0.64227  -0.63552  -0.63475  -0.63128  -0.62998
  Beta  occ. eigenvalues --   -0.62834  -0.62449  -0.62267  -0.62160  -0.62041
  Beta  occ. eigenvalues --   -0.61906  -0.60982  -0.60584  -0.60470  -0.59979
  Beta  occ. eigenvalues --   -0.59954  -0.59725  -0.59339  -0.59048  -0.58781
  Beta  occ. eigenvalues --   -0.58094  -0.57796  -0.57431  -0.57134  -0.56819
  Beta  occ. eigenvalues --   -0.56656  -0.56345  -0.56233  -0.55699  -0.55334
  Beta  occ. eigenvalues --   -0.55295  -0.54804  -0.54694  -0.54542  -0.54345
  Beta  occ. eigenvalues --   -0.54147  -0.53947  -0.53765  -0.53439  -0.53290
  Beta  occ. eigenvalues --   -0.53048  -0.52954  -0.52905  -0.52760  -0.52470
  Beta  occ. eigenvalues --   -0.52151  -0.52092  -0.51700  -0.51623  -0.51354
  Beta  occ. eigenvalues --   -0.51211  -0.51153  -0.50885  -0.50828  -0.50627
  Beta  occ. eigenvalues --   -0.50563  -0.50498  -0.50420  -0.50084  -0.49986
  Beta  occ. eigenvalues --   -0.49935  -0.49919  -0.49871  -0.49672  -0.49551
  Beta  occ. eigenvalues --   -0.49324  -0.49192  -0.49064  -0.48921  -0.48819
  Beta  occ. eigenvalues --   -0.48661  -0.48534  -0.48371  -0.48199  -0.48153
  Beta  occ. eigenvalues --   -0.48069  -0.47933  -0.47720  -0.47553  -0.47419
  Beta  occ. eigenvalues --   -0.47377  -0.47268  -0.47133  -0.47099  -0.46985
  Beta  occ. eigenvalues --   -0.46879  -0.46779  -0.46650  -0.46568  -0.46490
  Beta  occ. eigenvalues --   -0.46319  -0.46261  -0.46193  -0.46150  -0.45930
  Beta  occ. eigenvalues --   -0.45586  -0.45545  -0.45481  -0.45232  -0.45166
  Beta  occ. eigenvalues --   -0.45118  -0.45036  -0.44930  -0.44838  -0.44779
  Beta  occ. eigenvalues --   -0.44601  -0.44425  -0.44364  -0.44283  -0.44106
  Beta  occ. eigenvalues --   -0.43903  -0.43756  -0.43607  -0.43583  -0.43471
  Beta  occ. eigenvalues --   -0.43250  -0.43197  -0.43097  -0.43033  -0.42974
  Beta  occ. eigenvalues --   -0.42901  -0.42726  -0.42642  -0.42523  -0.42353
  Beta  occ. eigenvalues --   -0.42228  -0.42084  -0.42000  -0.41893  -0.41806
  Beta  occ. eigenvalues --   -0.41766  -0.41454  -0.41395  -0.41325  -0.41202
  Beta  occ. eigenvalues --   -0.41096  -0.41025  -0.40891  -0.40738  -0.40616
  Beta  occ. eigenvalues --   -0.40520  -0.40463  -0.40333  -0.40231  -0.40096
  Beta  occ. eigenvalues --   -0.40000  -0.39881  -0.39782  -0.39705  -0.39567
  Beta  occ. eigenvalues --   -0.39503  -0.39355  -0.39203  -0.39086  -0.38990
  Beta  occ. eigenvalues --   -0.38924  -0.38598  -0.38502  -0.38447  -0.38083
  Beta  occ. eigenvalues --   -0.38030  -0.38014  -0.37764  -0.37667  -0.37304
  Beta  occ. eigenvalues --   -0.37125  -0.36943  -0.36833  -0.36714  -0.36674
  Beta  occ. eigenvalues --   -0.36514  -0.36196  -0.35376  -0.34400  -0.34308
  Beta  occ. eigenvalues --   -0.33791  -0.33353  -0.33093  -0.33069  -0.32412
  Beta  occ. eigenvalues --   -0.32337  -0.31841  -0.31745  -0.31239  -0.31188
  Beta  occ. eigenvalues --   -0.30889  -0.30016  -0.29276  -0.29022  -0.28967
  Beta  occ. eigenvalues --   -0.28837  -0.28493  -0.28105  -0.27176  -0.26670
  Beta  occ. eigenvalues --   -0.23997
  Beta virt. eigenvalues --   -0.17402  -0.17194  -0.14290  -0.11696  -0.11450
  Beta virt. eigenvalues --   -0.10754  -0.10016  -0.09884  -0.09844  -0.09652
  Beta virt. eigenvalues --   -0.09350  -0.09118  -0.08687  -0.08576  -0.08267

 Mulliken charges and spin densities:
               1          2
     1  C   -0.411238   0.000017
     2  C   -0.018789   0.000063
     3  C    0.275945   0.000348
     4  C   -0.321592   0.000150
     5  C   -0.451354   0.000735
     6  C   -0.317320   0.000992
     7  C    0.068687   0.003928
     8  C   -0.435181   0.003346
     9  C   -0.477691   0.000000
    10  C    0.103680  -0.000004
    11  O   -0.453543   0.000000
    12  C   -0.379292   0.000068
    13  C   -0.368767   0.000002
    14  C   -0.148109  -0.000022
    15  C    0.481551  -0.000003
    16  C   -0.277300   0.000011
    17  C   -0.292530   0.000068
    18  C   -0.267625  -0.000171
    19  C   -0.338725  -0.000171
    20  C    0.048002  -0.000048
    21  O   -0.534592  -0.000412
    22  C   -0.408338  -0.000020
    23  C   -0.599048   0.000016
    24  C    0.482059   0.000381
    25  O   -0.368296  -0.000015
    26  N   -0.324277  -0.000133
    27  C   -0.220615   0.000005
    28  C    0.125062  -0.000008
    29  C   -0.191829   0.000016
    30  C   -0.213176  -0.000009
    31  N    0.063370  -0.000033
    32  C   -0.151878  -0.001061
    33  N   -0.107859   0.000061
    34  N   -1.020395   0.000892
    35  C   -0.506407   0.000001
    36  C   -0.108105   0.000013
    37  C    0.400562   0.000029
    38  C   -0.254647   0.000026
    39  C    0.458923   0.000109
    40  N   -0.081116   0.000003
    41  C   -0.110527   0.000412
    42  C   -0.379640  -0.000014
    43  C   -0.277736  -0.003422
    44  C   -0.463938   0.000176
    45  C   -0.087717   0.003153
    46  Co  -0.977205   1.274236
    47  C   -0.212717   0.098574
    48  C    0.132262   0.001755
    49  C    0.241440  -0.025269
    50  C   -0.221076   0.048226
    51  C   -0.206601  -0.004943
    52  C    0.059222  -0.003123
    53  C   -0.059241  -0.003363
    54  C   -0.048395   0.000439
    55  C    0.289103   0.028308
    56  C   -0.319124   0.001105
    57  C    0.309222   0.004800
    58  C    0.111877   0.012428
    59  C    0.006219  -0.003505
    60  C    0.267175   0.031142
    61  C   -0.056328  -0.020948
    62  C    0.083546   0.017271
    63  C    0.166739  -0.021906
    64  C   -0.288875   0.018927
    65  C   -0.278430   0.050032
    66  C   -0.165219  -0.011589
    67  N    0.832484  -0.196800
    68  N    0.388574  -0.074176
    69  N   -0.071977  -0.045144
    70  N    0.284237  -0.154940
    71  C   -0.377105  -0.002502
    72  C   -0.609299   0.009361
    73  C   -0.003255   0.000739
    74  O   -0.260650  -0.000083
    75  N   -0.400684   0.000016
    76  C   -0.324316  -0.003541
    77  C   -0.578027   0.000102
    78  C   -0.346554  -0.002634
    79  C   -0.330858   0.004427
    80  C    0.446350  -0.000735
    81  O   -0.633097   0.000238
    82  N   -0.310464   0.000013
    83  C   -0.372134  -0.001260
    84  C   -0.642320   0.000895
    85  C   -0.363076  -0.000565
    86  C   -0.467128  -0.001409
    87  C   -0.381076  -0.003897
    88  C   -0.926078   0.007823
    89  C   -0.267594  -0.002861
    90  C   -0.474103   0.002768
    91  Cl  -1.140110  -0.000845
    92  C    2.312115  -0.015013
    93  C    1.912592   0.005198
    94  Cl  -0.275641   0.004646
    95  Cl  -0.017245  -0.034060
    96  H    0.090845   0.000000
    97  H    0.103510   0.000001
    98  H    0.096951   0.000001
    99  H    0.098204   0.000000
   100  H    0.166176  -0.000005
   101  H    0.166609  -0.000237
   102  H    0.162482  -0.000505
   103  H    0.098775   0.000000
   104  H    0.105265   0.000000
   105  H    0.151426   0.000002
   106  H    0.117255   0.000000
   107  H    0.145849  -0.000001
   108  H    0.260614   0.000000
   109  H    0.119170   0.000000
   110  H    0.082850   0.000000
   111  H    0.099073   0.000000
   112  H    0.081870   0.000000
   113  H    0.093533   0.000000
   114  H    0.091667   0.000000
   115  H    0.140736   0.000001
   116  H    0.089468   0.000000
   117  H    0.114795   0.000000
   118  H    0.114714  -0.000001
   119  H    0.367027   0.000105
   120  H    0.174938  -0.000010
   121  H    0.116605   0.000000
   122  H    0.113900   0.000000
   123  H    0.099028   0.000000
   124  H    0.111012   0.000000
   125  H    0.108843  -0.000001
   126  H    0.117578   0.000001
   127  H    0.158642   0.000000
   128  H    0.290474  -0.000003
   129  H    0.375466  -0.000373
   130  H    0.507455  -0.000165
   131  H    0.184617   0.000000
   132  H    0.257590  -0.000017
   133  H    0.121435   0.000000
   134  H    0.111524   0.000000
   135  H    0.111524   0.000000
   136  H    0.110920   0.000000
   137  H    0.105863   0.000000
   138  H    0.147464   0.000002
   139  H    0.126446   0.000262
   140  H    0.121125  -0.000416
   141  H    0.108871   0.000000
   142  H    0.101522  -0.000255
   143  H    0.100284  -0.000282
   144  H    0.096374   0.000088
   145  H    0.135074  -0.000217
   146  H    0.101413  -0.000058
   147  H    0.134291  -0.000114
   148  H    0.139443   0.000241
   149  H    0.144315   0.000270
   150  H    0.139850   0.002415
   151  H    0.170679  -0.000052
   152  H    0.133773   0.000015
   153  H    0.126711   0.000022
   154  H    0.213226  -0.000100
   155  H    0.170306   0.000038
   156  H    0.222124   0.000002
   157  H    0.120381   0.000072
   158  H    0.112679   0.000080
   159  H    0.115356   0.000042
   160  H    0.147151   0.000141
   161  H    0.180032   0.000051
   162  H    0.136245  -0.000087
   163  H    0.136277   0.000012
   164  H    0.131150  -0.000001
   165  H    0.100616  -0.000017
   166  H    0.147388  -0.000017
   167  H    0.293597  -0.000001
   168  H    0.129585  -0.000096
   169  H    0.138950   0.000103
   170  H    0.235215   0.000005
   171  H    0.124701   0.000031
   172  H    0.124547  -0.000133
   173  H    0.114020   0.000048
   174  H    0.114870   0.000027
   175  H    0.129096  -0.000124
   176  H    0.121041  -0.000076
   177  H    0.123571   0.000006
   178  H    0.144759   0.000012
   179  H    0.125674   0.000056
   180  H    0.152417   0.000080
   181  H    0.138429   0.000121
   182  H    0.136243  -0.000188
   183  H    0.138450   0.000011
   184  H    0.127331  -0.000109
   185  H    0.119950   0.000029
   186  H    0.130768   0.000002
   187  H    0.161655  -0.000001
   188  Cl  -1.288119   0.001513
   189  H    0.109960   0.000046
   190  H    0.115069   0.000006
   191  H    0.128666  -0.000073
   192  H    0.150482  -0.000127
   193  H    0.130390   0.000072
   194  H    0.121623   0.000000
   195  H    0.113309   0.000000
   196  H    0.110318   0.000001
   197  H    0.106699   0.000000
   198  H    0.087655   0.000000
   199  H    0.119493   0.000000
   200  H    0.125491   0.000000
   201  H    0.091604  -0.000001
   202  H    0.113586   0.000000
   203  H    0.105454   0.000000
   204  H    0.114161   0.000000
   205  H    0.166571  -0.000002
   206  H    0.186870  -0.000004
   207  H    0.394531  -0.000003
   208  C    0.090289   0.000005
   209  O   -0.481984   0.000001
   210  N   -0.179030   0.000013
   211  H    0.224720  -0.000010
   212  C   -0.204425   0.000001
   213  H    0.104206   0.000000
   214  H    0.137188   0.000000
   215  H    0.107710  -0.000001
 Sum of Mulliken charges =   1.00000   1.00000

 Dipole moment (field-independent basis, Debye):
    X=             13.3989    Y=              3.8052    Z=             -6.2359  Tot=             15.2610
 Quadrupole moment (field-independent basis, Debye-Ang):
   XX=           -621.5836   YY=           -487.5778   ZZ=           -587.6342
   XY=            -10.1332   XZ=            -43.4466   YZ=            -15.2534

 Normal termination of Gaussian 09 at Thu Nov 28 06:47:16 2024.
