 Gaussian 09, Revision D.01,

 ----------------------------------------------------------------------
 #p b3lyp/gen nosymm scrf=(smd,read) guess=read em=gd3 int=ultrafine ps
 eudo=read scf=xqc scfcyc=96
 ----------------------------------------------------------------------

 ---------------------
 Reactp_out_freq12_smd
 ---------------------
 Symbolic Z-matrix:
 Charge =  1 Multiplicity = 2

 SCF Done:  E(UB3LYP) =  -6098.32048314     A.U. after    1 cycles
 Normal termination of Gaussian 09 at Tue Aug 27 05:34:32 2024.
 Gaussian 09:  ES64L-G09RevD.01 24-Apr-2013

 ---------------------------------------------------------------------
 #p b3lyp/gen nosymm guess=read em=gd3 int=ultrafine scf=xqc scfcyc=96
 ---------------------------------------------------------------------

 -------------------
 Reactp_out_freq12_l
 -------------------
 Symbolic Z-matrix:
 Charge =  1 Multiplicity = 2

                          Input orientation:
 ---------------------------------------------------------------------
 Center     Atomic      Atomic             Coordinates (Angstroms)
 Number     Number       Type             X           Y           Z
 ---------------------------------------------------------------------
      1          6           0        7.457311   -4.409962    3.946361
      2          6           0        6.585395   -3.308825    4.582959
      3          6           0        5.764460   -2.479414    3.620770
      4          6           0        6.035277   -1.121439    3.410866
      5          6           0        4.667245   -3.047763    2.955435
      6          6           0        5.226292   -0.343085    2.579412
      7          6           0        3.853762   -2.277494    2.125738
      8          6           0        4.127528   -0.919221    1.939848
      9          6           0       -3.498135    7.188516    1.544797
     10          6           0       -2.179067    6.520797    1.123404
     11          8           0       -2.100313    6.417742   -0.326676
     12          6           0       -2.034210    5.107788    1.673499
     13          6           0       -6.711525    2.927759    5.387876
     14          6           0       -5.267339    2.594390    5.818640
     15          6           0       -4.451960    1.946163    4.723435
     16          6           0       -4.830998    0.684089    4.243288
     17          6           0       -3.315145    2.534953    4.158413
     18          6           0       -4.112676    0.031025    3.248894
     19          6           0       -2.573147    1.888603    3.169580
     20          6           0       -2.945237    0.609998    2.692223
     21          8           0       -2.259201   -0.012012    1.735026
     22          6           0       -4.045281   -5.537930    3.752337
     23          6           0       -2.889120   -4.535099    3.803124
     24          6           0       -3.067435   -3.356622    2.845846
     25          8           0       -4.074877   -3.270739    2.122809
     26          7           0       -2.052234   -2.478126    2.784383
     27          6           0       -7.761333    1.441583   -2.167683
     28          6           0       -7.311271    1.805875   -0.741113
     29          6           0       -6.575798    3.148805   -0.665901
     30          6           0       -5.690331    3.255286    0.585163
     31          7           0       -4.551739    2.337599    0.540415
     32          6           0       -3.480698    2.487133   -0.253218
     33          7           0       -3.381646    3.579108   -1.059650
     34          7           0       -2.531827    1.556194   -0.292282
     35          6           0       10.035955    5.629928    0.674270
     36          6           0        8.697685    5.121017    1.223121
     37          6           0        7.860071    4.374628    0.225608
     38          6           0        8.161660    4.101895   -1.084325
     39          6           0        6.566692    3.784197    0.473576
     40          7           0        7.132530    3.378212   -1.670532
     41          6           0        6.142160    3.166208   -0.736012
     42          6           0        5.728630    3.716003    1.600374
     43          6           0        4.924927    2.488515   -0.836125
     44          6           0        4.514096    3.042162    1.505259
     45          6           0        4.121938    2.426755    0.298104
     46         27           0        1.085061   -1.612021   -2.028215
     47          6           0       -1.509789   -2.717130   -2.361054
     48          6           0       -2.992770   -2.207811   -2.322664
     49          6           0       -2.882552   -0.872711   -3.160754
     50          6           0       -1.427208   -0.477838   -2.984371
     51          6           0       -0.881784    0.830744   -3.311948
     52          6           0        0.472143    1.068889   -3.261244
     53          6           0        1.255093    2.362237   -3.651662
     54          6           0        2.618121    1.728100   -4.059966
     55          6           0        2.653590    0.502576   -3.190608
     56          6           0        3.833412   -0.146703   -2.873592
     57          6           0        3.961218   -1.346917   -2.187864
     58          6           0        5.316644   -1.971110   -1.936247
     59          6           0        4.924052   -3.337046   -1.280279
     60          6           0        3.402828   -3.266767   -1.161949
     61          6           0        2.627495   -4.242794   -0.567548
     62          6           0        1.186968   -4.213720   -0.641293
     63          6           0        0.204225   -5.265880   -0.074900
     64          6           0       -1.103007   -4.890808   -0.849150
     65          6           0       -0.930303   -3.389128   -1.096505
     66          6           0       -1.178250   -3.563829   -3.608132
     67          7           0       -0.724462   -1.452176   -2.477397
     68          7           0        1.413411    0.104691   -2.858743
     69          7           0        2.931269   -2.095866   -1.749695
     70          7           0        0.537524   -3.219026   -1.191898
     71          6           0       -3.993206   -3.239044   -2.870491
     72          6           0       -3.404913   -1.848672   -0.873540
     73          6           0       -4.813986   -1.279556   -0.766732
     74          8           0       -5.328585   -0.608922   -1.680112
     75          7           0       -5.455535   -1.552186    0.379687
     76          6           0       -3.345959   -0.948058   -4.626048
     77          6           0       -1.874027    1.892193   -3.744928
     78          6           0        0.714328    3.251608   -4.783776
     79          6           0        1.565690    3.254555   -2.397652
     80          6           0        0.376924    3.972963   -1.791162
     81          8           0       -0.587878    3.329175   -1.352561
     82          7           0        0.391897    5.317098   -1.731091
     83          6           0        2.723848    1.290860   -5.535833
     84          6           0        6.164664   -1.114073   -0.974376
     85          6           0        6.050374   -2.077740   -3.285488
     86          6           0        5.404611   -4.580600   -2.051558
     87          6           0        3.301276   -5.359741    0.207579
     88          6           0        0.051692   -5.031831    1.445405
     89          6           0        0.526451   -6.745142   -0.361243
     90          6           0       -2.399931   -5.324409   -0.168382
     91         17           0        1.104296    2.113177    3.904906
     92          6           0        0.839013    1.130227    2.508124
     93          6           0        0.831962   -0.214582    2.550503
     94         17           0        0.547407    2.000013    1.040841
     95         17           0        0.649966   -1.186473    1.129377
     96          1           0        7.224711   -2.647926    5.178935
     97          1           0        5.898322   -3.786072    5.294042
     98          1           0        6.880140   -0.663843    3.919765
     99          1           0        4.433327   -4.098159    3.115576
    100          1           0        5.448361    0.708718    2.428687
    101          1           0        2.998078   -2.726882    1.636535
    102          1           0        3.494378   -0.316125    1.297323
    103          1           0        8.286345   -3.991293    3.368791
    104          1           0       -1.329848    7.126736    1.472185
    105          1           0       -1.205911    4.581873    1.191257
    106          1           0       -2.942908    4.520538    1.523987
    107          1           0       -1.841691    5.143564    2.749241
    108          1           0       -2.331599    7.281446   -0.695731
    109          1           0       -4.301211    6.826373    0.891488
    110          1           0       -4.765450    3.497629    6.183865
    111          1           0       -5.308202    1.907036    6.673608
    112          1           0       -2.995696    3.515709    4.507284
    113          1           0       -5.708495    0.197625    4.665877
    114          1           0       -1.694865    2.363511    2.747763
    115          1           0       -4.423222   -0.946841    2.901944
    116          1           0       -7.077487    2.195913    4.660347
    117          1           0       -2.743135   -4.138680    4.815728
    118          1           0       -1.941399   -5.019386    3.539068
    119          1           0       -2.152206   -1.571475    2.263448
    120          1           0       -1.323924   -2.527345    3.482078
    121          1           0       -4.498906   -5.532947    2.758568
    122          1           0       -8.180661    1.829948   -0.072337
    123          1           0       -6.645610    1.014678   -0.386523
    124          1           0       -7.292338    3.979021   -0.669976
    125          1           0       -5.946211    3.274060   -1.554891
    126          1           0       -5.330507    4.283234    0.735641
    127          1           0       -6.254768    3.000251    1.486014
    128          1           0       -4.543305    1.546398    1.174684
    129          1           0       -1.684922    1.826127   -0.777609
    130          1           0       -2.406931    0.856872    0.527390
    131          1           0       -3.940040    4.385319   -0.824665
    132          1           0       -2.421277    3.814507   -1.303660
    133          1           0       -6.876873    1.197412   -2.766145
    134          1           0        8.119546    5.968427    1.617714
    135          1           0        8.884919    4.469746    2.088496
    136          1           0        9.037857    4.365626   -1.658066
    137          1           0        6.028484    4.183597    2.533899
    138          1           0        3.859230    2.978342    2.369543
    139          1           0        4.620254    2.009823   -1.757673
    140          1           0        3.181143    1.888909    0.256510
    141          1           0        9.886913    6.348881   -0.138016
    142          1           0       -3.510688   -0.123548   -2.680059
    143          1           0        3.449162    2.405030   -3.835264
    144          1           0        4.745886    0.319734   -3.220950
    145          1           0        5.345467   -3.371799   -0.268703
    146          1           0       -1.031101   -5.402995   -1.815222
    147          1           0       -1.255158   -2.824746   -0.217586
    148          1           0       -1.403768   -3.012501   -4.520897
    149          1           0       -1.740640   -4.498661   -3.626218
    150          1           0       -0.111114   -3.806122   -3.617507
    151          1           0       -5.003835   -2.826975   -2.849430
    152          1           0       -3.782737   -3.529410   -3.900674
    153          1           0       -3.987543   -4.143375   -2.259572
    154          1           0       -2.730298   -1.109052   -0.432177
    155          1           0       -3.355481   -2.725497   -0.226920
    156          1           0       -6.395829   -1.201596    0.497003
    157          1           0       -3.238845    0.018831   -5.121306
    158          1           0       -2.793740   -1.684661   -5.214729
    159          1           0       -1.542709    2.885801   -3.467783
    160          1           0       -2.043396    1.879112   -4.826936
    161          1           0       -2.838531    1.749502   -3.256567
    162          1           0        1.520515    3.899574   -5.142756
    163          1           0       -0.097571    3.902142   -4.457337
    164          1           0        0.350029    2.663111   -5.627717
    165          1           0        2.339281    3.974052   -2.685150
    166          1           0        1.991789    2.636934   -1.601427
    167          1           0       -0.378443    5.783080   -1.245358
    168          1           0        2.729993    2.149297   -6.211205
    169          1           0        1.889557    0.638012   -5.811476
    170          1           0        5.676164   -0.994853   -0.007587
    171          1           0        6.350286   -0.116268   -1.382871
    172          1           0        7.132510   -1.600025   -0.811784
    173          1           0        5.459665   -2.597898   -4.044207
    174          1           0        6.285863   -1.082552   -3.670482
    175          1           0        7.001043   -2.605160   -3.170013
    176          1           0        6.491696   -4.563977   -2.162085
    177          1           0        5.148256   -5.501909   -1.530629
    178          1           0        4.292332   -5.061093    0.550553
    179          1           0        2.732147   -5.609102    1.103407
    180          1           0        3.405928   -6.282576   -0.371743
    181          1           0       -0.355971   -4.043360    1.669082
    182          1           0       -0.624518   -5.782795    1.862742
    183          1           0        1.007527   -5.127311    1.965694
    184          1           0       -0.375690   -7.342299   -0.200055
    185          1           0        1.299158   -7.149625    0.294083
    186          1           0       -3.252323   -5.224717   -0.842064
    187          1           0       -2.623269   -4.736044    0.721005
    188         17           0        1.041074   -1.108012    4.017020
    189          1           0        4.960434   -4.629118   -3.049380
    190          1           0        0.843831   -6.891407   -1.398839
    191          1           0       -2.352620   -6.377606    0.124883
    192          1           0       -4.405456   -1.211843   -4.652181
    193          1           0        3.651843    0.733427   -5.689815
    194          1           0       -8.280112    2.284730   -2.632813
    195          1           0       -4.831084   -5.290081    4.469834
    196          1           0       -3.689854   -6.548481    3.953556
    197          1           0       -7.386380    2.878881    6.242401
    198          1           0       -6.785047    3.917245    4.925776
    199          1           0       -3.461595    8.279752    1.477329
    200          1           0       -3.768879    6.897654    2.559898
    201          1           0        6.868389   -5.055592    3.286425
    202          1           0        7.850095   -5.019481    4.760239
    203          1           0       10.644549    4.804372    0.290049
    204          1           0       10.600211    6.120560    1.467195
    205          1           0        7.126761    3.046904   -2.620427
    206          1           0        1.191333    5.852496   -2.030534
    207          1           0       -5.020089   -2.137640    1.097474
    208          6           0       -8.745584    0.281133   -2.139080
    209          8           0       -9.954075    0.430911   -2.287654
    210          7           0       -8.159307   -0.914127   -1.849151
    211          1           0       -7.143272   -0.949775   -1.868311
    212          6           0       -8.930987   -2.131282   -1.784922
    213          1           0       -8.470817   -2.830215   -1.078937
    214          1           0       -9.941426   -1.890392   -1.448979
    215          1           0       -9.013765   -2.629694   -2.760694
 ---------------------------------------------------------------------

 SCF Done:  E(UB3LYP) =  -6758.38995948     A.U. after   72 cycles

 Alpha virt. eigenvalues --    3.32857   3.33077   3.33217   3.33356   3.33465
 Alpha virt. eigenvalues --    3.33711   3.34016   3.34175   3.34270   3.34364
 Alpha virt. eigenvalues --    3.34437   3.34687   3.34871   3.35197   3.35335

  Beta  occ. eigenvalues -- -101.64677-101.64618-101.64589-101.64431 -63.74941
  Beta  occ. eigenvalues --  -28.16256 -28.16066 -28.15178 -19.22387 -19.19470
  Beta  occ. eigenvalues --  -19.15689 -19.15543 -19.11617 -19.11548 -14.43474
  Beta  occ. eigenvalues --  -14.42406 -14.41879 -14.41709 -14.41686 -14.41063
  Beta  occ. eigenvalues --  -14.40954 -14.40808 -14.38925 -14.38134 -14.37574
  Beta  occ. eigenvalues --  -14.36149 -10.38219 -10.37783 -10.37184 -10.37041
  Beta  occ. eigenvalues --  -10.34284 -10.33602 -10.31960 -10.31934 -10.31786
  Beta  occ. eigenvalues --  -10.31769 -10.31755 -10.31191 -10.30964 -10.30467
  Beta  occ. eigenvalues --  -10.30366 -10.29777 -10.28905 -10.28690 -10.28376
  Beta  occ. eigenvalues --  -10.28206 -10.28154 -10.27821 -10.27310 -10.27262
  Beta  occ. eigenvalues --  -10.27259 -10.26917 -10.26762 -10.26517 -10.26132
  Beta  occ. eigenvalues --  -10.25816 -10.25792 -10.25751 -10.25688 -10.25529
  Beta  occ. eigenvalues --  -10.24819 -10.24550 -10.24466 -10.24307 -10.24271
  Beta  occ. eigenvalues --  -10.24249 -10.24215 -10.24208 -10.24206 -10.24119
  Beta  occ. eigenvalues --  -10.23977 -10.23888 -10.23741 -10.23708 -10.23707
  Beta  occ. eigenvalues --  -10.23501 -10.23482 -10.23457 -10.23432 -10.23383
  Beta  occ. eigenvalues --  -10.23381 -10.23267 -10.23240 -10.23235 -10.23181
  Beta  occ. eigenvalues --  -10.23178 -10.23122 -10.23102 -10.23062 -10.23011
  Beta  occ. eigenvalues --  -10.22968 -10.22167 -10.21837 -10.21451 -10.21411
  Beta  occ. eigenvalues --  -10.21375 -10.21311 -10.21231 -10.21216 -10.21155
  Beta  occ. eigenvalues --  -10.20328 -10.20298 -10.20222  -9.56135  -9.56129
  Beta  occ. eigenvalues --   -9.56121  -9.55866  -7.32634  -7.32629  -7.32627
  Beta  occ. eigenvalues --   -7.32381  -7.31584  -7.31582  -7.31575  -7.31549
  Beta  occ. eigenvalues --   -7.31535  -7.31535  -7.31322  -7.31281  -5.54081
  Beta  occ. eigenvalues --   -1.93074  -1.92875  -1.92327  -1.14499  -1.11662
  Beta  occ. eigenvalues --   -1.10456  -1.09826  -1.08620  -1.06443  -1.06280
  Beta  occ. eigenvalues --   -1.04935  -1.04758  -1.04663  -1.02870  -1.02843
  Beta  occ. eigenvalues --   -1.02186  -1.01012  -0.98504  -0.97140  -0.97046
  Beta  occ. eigenvalues --   -0.95924  -0.95586  -0.95295  -0.93015  -0.92419
  Beta  occ. eigenvalues --   -0.91978  -0.91936  -0.90970  -0.90868  -0.90470
  Beta  occ. eigenvalues --   -0.89950  -0.89887  -0.89131  -0.88917  -0.88386
  Beta  occ. eigenvalues --   -0.86986  -0.86165  -0.85728  -0.85288  -0.84656
  Beta  occ. eigenvalues --   -0.84483  -0.83265  -0.83190  -0.82113  -0.81808
  Beta  occ. eigenvalues --   -0.81786  -0.81637  -0.80827  -0.80755  -0.80604
  Beta  occ. eigenvalues --   -0.80454  -0.79876  -0.78819  -0.78568  -0.78460
  Beta  occ. eigenvalues --   -0.78269  -0.77806  -0.77440  -0.77305  -0.77260
  Beta  occ. eigenvalues --   -0.76980  -0.76410  -0.75603  -0.75245  -0.74822
  Beta  occ. eigenvalues --   -0.74510  -0.74011  -0.73468  -0.73165  -0.72070
  Beta  occ. eigenvalues --   -0.71158  -0.70279  -0.70199  -0.69637  -0.69449
  Beta  occ. eigenvalues --   -0.69385  -0.69175  -0.68981  -0.67734  -0.66912
  Beta  occ. eigenvalues --   -0.66803  -0.66451  -0.66046  -0.65881  -0.65716
  Beta  occ. eigenvalues --   -0.65098  -0.64939  -0.64551  -0.64458  -0.64218
  Beta  occ. eigenvalues --   -0.63843  -0.63747  -0.63530  -0.63418  -0.63366
  Beta  occ. eigenvalues --   -0.62366  -0.61993  -0.61932  -0.61462  -0.61383
  Beta  occ. eigenvalues --   -0.61226  -0.60747  -0.60379  -0.60119  -0.59415
  Beta  occ. eigenvalues --   -0.58986  -0.58631  -0.58404  -0.58131  -0.57810
  Beta  occ. eigenvalues --   -0.57588  -0.57406  -0.56963  -0.56562  -0.56427
  Beta  occ. eigenvalues --   -0.56097  -0.55980  -0.55776  -0.55646  -0.55490
  Beta  occ. eigenvalues --   -0.55233  -0.55152  -0.54725  -0.54625  -0.54431
  Beta  occ. eigenvalues --   -0.54270  -0.54232  -0.54069  -0.53757  -0.53651
  Beta  occ. eigenvalues --   -0.53399  -0.53045  -0.52901  -0.52717  -0.52552
  Beta  occ. eigenvalues --   -0.52381  -0.52184  -0.52110  -0.51870  -0.51842
  Beta  occ. eigenvalues --   -0.51788  -0.51709  -0.51439  -0.51405  -0.51236
  Beta  occ. eigenvalues --   -0.51175  -0.51112  -0.51097  -0.50794  -0.50606
  Beta  occ. eigenvalues --   -0.50561  -0.50466  -0.50373  -0.50191  -0.50082
  Beta  occ. eigenvalues --   -0.49962  -0.49890  -0.49772  -0.49618  -0.49545
  Beta  occ. eigenvalues --   -0.49273  -0.49226  -0.49131  -0.48859  -0.48814
  Beta  occ. eigenvalues --   -0.48736  -0.48620  -0.48561  -0.48439  -0.48349
  Beta  occ. eigenvalues --   -0.48272  -0.48221  -0.48070  -0.47886  -0.47838
  Beta  occ. eigenvalues --   -0.47782  -0.47704  -0.47663  -0.47454  -0.47397
  Beta  occ. eigenvalues --   -0.47349  -0.47252  -0.46996  -0.46738  -0.46615
  Beta  occ. eigenvalues --   -0.46455  -0.46354  -0.46290  -0.46203  -0.46109
  Beta  occ. eigenvalues --   -0.45983  -0.45946  -0.45761  -0.45650  -0.45510
  Beta  occ. eigenvalues --   -0.45440  -0.45310  -0.45264  -0.45056  -0.44773
  Beta  occ. eigenvalues --   -0.44671  -0.44586  -0.44447  -0.44428  -0.44338
  Beta  occ. eigenvalues --   -0.44184  -0.44074  -0.44056  -0.43946  -0.43766
  Beta  occ. eigenvalues --   -0.43746  -0.43509  -0.43426  -0.43195  -0.43160
  Beta  occ. eigenvalues --   -0.42990  -0.42893  -0.42747  -0.42717  -0.42607
  Beta  occ. eigenvalues --   -0.42503  -0.42426  -0.42341  -0.42155  -0.42122
  Beta  occ. eigenvalues --   -0.42057  -0.41813  -0.41723  -0.41607  -0.41443
  Beta  occ. eigenvalues --   -0.41356  -0.41245  -0.41210  -0.40964  -0.40935
  Beta  occ. eigenvalues --   -0.40876  -0.40860  -0.40585  -0.40527  -0.40408
  Beta  occ. eigenvalues --   -0.40223  -0.40122  -0.40067  -0.39682  -0.39573
  Beta  occ. eigenvalues --   -0.39518  -0.39404  -0.39161  -0.39065  -0.38797
  Beta  occ. eigenvalues --   -0.38415  -0.38138  -0.38035  -0.37823  -0.37735
  Beta  occ. eigenvalues --   -0.37718  -0.37625  -0.37421  -0.37110  -0.36373
  Beta  occ. eigenvalues --   -0.35593  -0.35317  -0.35146  -0.34190  -0.34133
  Beta  occ. eigenvalues --   -0.33415  -0.33349  -0.32968  -0.32562  -0.32032
  Beta  occ. eigenvalues --   -0.31591  -0.31074  -0.30672  -0.29745  -0.29535
  Beta  occ. eigenvalues --   -0.29508  -0.29148  -0.29084  -0.28362  -0.27347
  Beta  occ. eigenvalues --   -0.24657
  Beta virt. eigenvalues --   -0.21618  -0.17133  -0.14002  -0.10941  -0.10424
  Beta virt. eigenvalues --   -0.09983  -0.09363  -0.09259  -0.08955  -0.08815
  Beta virt. eigenvalues --   -0.08550  -0.08018  -0.07910  -0.07816  -0.07537

 Mulliken charges and spin densities:
               1          2
     1  C   -0.401095   0.000002
     2  C   -0.011876  -0.000002
     3  C    0.288233  -0.000038
     4  C   -0.326705   0.000030
     5  C   -0.451794  -0.000335
     6  C   -0.315751   0.000074
     7  C    0.076474  -0.001128
     8  C   -0.417646  -0.000555
     9  C   -0.467411   0.000001
    10  C    0.115068   0.000004
    11  O   -0.459297   0.000001
    12  C   -0.364167  -0.000012
    13  C   -0.357970  -0.000001
    14  C   -0.138287  -0.000001
    15  C    0.482163   0.000000
    16  C   -0.284692   0.000008
    17  C   -0.288358  -0.000002
    18  C   -0.272030  -0.000005
    19  C   -0.341173   0.000006
    20  C    0.068993   0.000193
    21  O   -0.547423   0.000052
    22  C   -0.397274  -0.000006
    23  C   -0.597425   0.000131
    24  C    0.494043  -0.000240
    25  O   -0.373524   0.000009
    26  N   -0.328721  -0.000034
    27  C   -0.208573  -0.000018
    28  C    0.136440   0.000014
    29  C   -0.187427   0.000022
    30  C   -0.195272  -0.000017
    31  N    0.063347   0.000042
    32  C   -0.166194  -0.000541
    33  N   -0.117137   0.000054
    34  N   -1.018422  -0.000158
    35  C   -0.494574   0.000000
    36  C   -0.101771  -0.000005
    37  C    0.398366   0.000006
    38  C   -0.242139   0.000016
    39  C    0.461266  -0.000019
    40  N   -0.092852   0.000011
    41  C   -0.106423   0.000285
    42  C   -0.381787   0.000029
    43  C   -0.269010  -0.000599
    44  C   -0.461949  -0.000036
    45  C   -0.091487   0.000057
    46  Co  -1.140097   0.284852
    47  C   -0.391178  -0.007892
    48  C    0.171206   0.001501
    49  C    0.275084   0.027314
    50  C   -0.287600  -0.021924
    51  C   -0.154430   0.006128
    52  C    0.178145  -0.012916
    53  C   -0.049751   0.009337
    54  C   -0.048633   0.012444
    55  C    0.332990  -0.007184
    56  C   -0.307704   0.000481
    57  C    0.333851  -0.009867
    58  C    0.121873   0.009407
    59  C    0.009552   0.010293
    60  C    0.328466  -0.016857
    61  C    0.007409   0.004867
    62  C    0.166209  -0.020057
    63  C    0.214381   0.018369
    64  C   -0.320634   0.001364
    65  C   -0.263391  -0.010339
    66  C   -0.091651   0.001623
    67  N    1.144117   0.232479
    68  N    0.173692   0.146871
    69  N   -0.279469   0.129458
    70  N    0.305783   0.209668
    71  C   -0.359070   0.001071
    72  C   -0.598901  -0.003536
    73  C    0.010091  -0.001136
    74  O   -0.269179   0.000352
    75  N   -0.413935   0.000064
    76  C   -0.317067  -0.000158
    77  C   -0.567443  -0.001823
    78  C   -0.328511   0.001034
    79  C   -0.329925  -0.002000
    80  C    0.469076  -0.000066
    81  O   -0.637984  -0.000122
    82  N   -0.323363  -0.000016
    83  C   -0.362182  -0.000456
    84  C   -0.653888  -0.002239
    85  C   -0.359541   0.000581
    86  C   -0.445564  -0.000744
    87  C   -0.363262  -0.000556
    88  C   -0.935831  -0.002044
    89  C   -0.256572   0.001567
    90  C   -0.464582   0.000874
    91  Cl  -1.147372   0.000022
    92  C    2.313151   0.000268
    93  C    1.922717   0.000084
    94  Cl  -0.285317  -0.000065
    95  Cl  -0.061890   0.003518
    96  H    0.086585   0.000000
    97  H    0.098722   0.000000
    98  H    0.094509   0.000002
    99  H    0.095200   0.000004
   100  H    0.164131   0.000000
   101  H    0.163443  -0.000057
   102  H    0.160082   0.000047
   103  H    0.094224   0.000000
   104  H    0.099599   0.000000
   105  H    0.147099   0.000000
   106  H    0.112246   0.000000
   107  H    0.141879   0.000000
   108  H    0.260785   0.000000
   109  H    0.114791   0.000000
   110  H    0.078406   0.000000
   111  H    0.094265   0.000000
   112  H    0.079521   0.000000
   113  H    0.090731   0.000000
   114  H    0.091527   0.000001
   115  H    0.140131   0.000000
   116  H    0.084793   0.000000
   117  H    0.110626   0.000001
   118  H    0.110080   0.000009
   119  H    0.374806   0.000019
   120  H    0.174449   0.000006
   121  H    0.112627   0.000002
   122  H    0.109084   0.000000
   123  H    0.095485   0.000004
   124  H    0.105992   0.000000
   125  H    0.103432   0.000000
   126  H    0.112952   0.000000
   127  H    0.154034   0.000000
   128  H    0.292119   0.000001
   129  H    0.379194   0.000045
   130  H    0.514264  -0.000031
   131  H    0.185311   0.000000
   132  H    0.259823   0.000001
   133  H    0.116221   0.000003
   134  H    0.106965   0.000000
   135  H    0.106783   0.000000
   136  H    0.109161   0.000000
   137  H    0.103851  -0.000001
   138  H    0.144681   0.000000
   139  H    0.126486  -0.000032
   140  H    0.121399   0.000035
   141  H    0.104296   0.000000
   142  H    0.096393  -0.000862
   143  H    0.093395  -0.000521
   144  H    0.091306  -0.000514
   145  H    0.127218  -0.000624
   146  H    0.094102  -0.000006
   147  H    0.128615   0.001232
   148  H    0.134491  -0.000024
   149  H    0.139403   0.000114
   150  H    0.143506   0.000068
   151  H    0.166424   0.000780
   152  H    0.128759  -0.000009
   153  H    0.122022  -0.000062
   154  H    0.206711   0.000174
   155  H    0.167365   0.000090
   156  H    0.222400   0.000021
   157  H    0.117132  -0.000034
   158  H    0.108552   0.000147
   159  H    0.110259   0.000194
   160  H    0.141912   0.000327
   161  H    0.174576   0.000100
   162  H    0.130958   0.000777
   163  H    0.131362  -0.000044
   164  H    0.125430   0.000090
   165  H    0.095961   0.000203
   166  H    0.143137   0.000107
   167  H    0.295153  -0.000001
   168  H    0.125838   0.000376
   169  H    0.135070   0.000075
   170  H    0.230999   0.000114
   171  H    0.121484   0.000032
   172  H    0.120949   0.000456
   173  H    0.108952   0.000062
   174  H    0.110330   0.000012
   175  H    0.124526   0.000596
   176  H    0.116572   0.000529
   177  H    0.119985   0.000031
   178  H    0.139930   0.000042
   179  H    0.120810   0.000109
   180  H    0.146932   0.000249
   181  H    0.135050   0.000002
   182  H    0.132288   0.000779
   183  H    0.134388   0.000054
   184  H    0.123140   0.001174
   185  H    0.115989  -0.000075
   186  H    0.126661  -0.000038
   187  H    0.157413   0.000108
   188  Cl  -1.302145  -0.000024
   189  H    0.105366   0.000096
   190  H    0.109853   0.000205
   191  H    0.124538   0.000852
   192  H    0.146404   0.001163
   193  H    0.126940   0.000026
   194  H    0.117926   0.000000
   195  H    0.109423   0.000000
   196  H    0.106263   0.000004
   197  H    0.102782   0.000000
   198  H    0.083055   0.000000
   199  H    0.115632   0.000000
   200  H    0.121232   0.000000
   201  H    0.087091   0.000000
   202  H    0.109681   0.000000
   203  H    0.100965   0.000000
   204  H    0.110379   0.000000
   205  H    0.165471   0.000002
   206  H    0.186893  -0.000014
   207  H    0.397425   0.000007
   208  C    0.103142  -0.000004
   209  O   -0.491519   0.000001
   210  N   -0.191444   0.000007
   211  H    0.226165   0.000000
   212  C   -0.188948   0.000015
   213  H    0.100418   0.000000
   214  H    0.134386   0.000001
   215  H    0.103355   0.000001
 Sum of Mulliken charges =   1.00000   1.00000

 Dipole moment (field-independent basis, Debye):
    X=             13.3825    Y=              3.7640    Z=             -6.4145  Tot=             15.3102
 Quadrupole moment (field-independent basis, Debye-Ang):
   XX=           -619.7451   YY=           -485.2495   ZZ=           -585.6723
   XY=             -9.8802   XZ=            -43.7742   YZ=            -15.5472

 Normal termination of Gaussian 09 at Wed Aug 28 22:42:09 2024.
