 Gaussian 09, Revision D.01,
 Gaussian 09:  ES64L-G09RevD.01 24-Apr-2013

 -------------------------------------------------------------------
 #p opt freq b3lyp/gen nosymm em=gd3 int=ultrafine scf=xqc scfcyc=96
 -------------------------------------------------------------------

 ---------------------
 Trifluorochloroethene
 ---------------------
 Symbolic Z-matrix:
 Charge =  0 Multiplicity = 1

 SCF Done:  E(RB3LYP) =  -835.897614414     A.U. after   13 cycles
 SCF Done:  E(RB3LYP) =  -835.947609289     A.U. after   11 cycles
 SCF Done:  E(RB3LYP) =  -836.018972548     A.U. after   11 cycles
 SCF Done:  E(RB3LYP) =  -836.036198933     A.U. after   11 cycles
 SCF Done:  E(RB3LYP) =  -836.036364105     A.U. after    9 cycles
 SCF Done:  E(RB3LYP) =  -836.036364022     A.U. after    8 cycles
 SCF Done:  E(RB3LYP) =  -836.036368541     A.U. after    8 cycles
 Optimization completed.
    -- Stationary point found.
 Normal termination of Gaussian 09 at Thu Jun 13 10:39:10 2024.

 ------------------------------------------------------------------
 #P Geom=AllCheck Guess=TCheck SCRF=Check GenChk RB3LYP/ChkBas Freq
 ------------------------------------------------------------------

 Structure from the checkpoint file:  "Trifluorochloroethene.chk"
 ---------------------
 Trifluorochloroethene
 ---------------------
 Charge =  0 Multiplicity = 1

                          Input orientation:
 ---------------------------------------------------------------------
 Center     Atomic      Atomic             Coordinates (Angstroms)
 Number     Number       Type             X           Y           Z
 ---------------------------------------------------------------------
      1          6           0       49.803021   35.676082   32.624676
      2          6           0       50.615356   36.344514   31.819397
      3          9           0       49.636748   35.947927   33.902601
      4          9           0       49.067950   34.656908   32.224912
      5          9           0       50.719146   35.996446   30.535866
      6         17           0       51.583779   37.673123   32.307547
 ---------------------------------------------------------------------

 SCF Done:  E(RB3LYP) =  -836.036368542     A.U. after    1 cycles

 Alpha  occ. eigenvalues -- -101.59858 -24.75158 -24.75050 -24.73806 -10.37428
 Alpha  occ. eigenvalues --  -10.33888  -9.51245  -7.27760  -7.26696  -7.26684
 Alpha  occ. eigenvalues --   -1.32599  -1.28074  -1.26744  -0.91689  -0.80212
 Alpha  occ. eigenvalues --   -0.67186  -0.62417  -0.61047  -0.56602  -0.53754
 Alpha  occ. eigenvalues --   -0.50898  -0.49393  -0.48298  -0.46530  -0.44022
 Alpha  occ. eigenvalues --   -0.38592  -0.36354  -0.27395
 Alpha virt. eigenvalues --   -0.01623  -0.00925  -0.00674   0.02320   0.03793
 Alpha virt. eigenvalues --    0.05081   0.06925   0.07291   0.08540   0.08674
 Alpha virt. eigenvalues --    0.09869   0.10434   0.12318   0.13932   0.16493

 Mulliken charges:
               1
     1  C    0.391734
     2  C    0.362700
     3  F   -0.279088
     4  F   -0.305930
     5  F   -0.244880
     6  Cl   0.075464
 Sum of Mulliken charges =   0.00000

 Dipole moment (field-independent basis, Debye):
    X=              0.2042    Y=              0.3629    Z=              0.3283  Tot=              0.5302
 Quadrupole moment (field-independent basis, Debye-Ang):
   XX=            -17.4622   YY=            -11.6512   ZZ=            -19.3783
   XY=             25.5730   XZ=             23.8096   YZ=             23.3720

  Exact polarizability:  38.703  13.439  42.059  -3.887  -0.183  38.241
 Approx polarizability:  57.516  20.106  61.851  -7.093  -1.069  58.398

                      1                      2                      3
                      A                      A                      A
 Frequencies --    168.9477               192.2292               339.5432
 Red. masses --     19.8764                20.8098                19.6946
 Frc consts  --      0.3343                 0.4531                 1.3378
 IR Inten    --      0.0619                 2.6349                 1.4364

                      4                      5                      6
                      A                      A                      A
 Frequencies --    379.0076               455.6195               515.4504
 Red. masses --     13.2259                23.2838                17.4647
 Frc consts  --      1.1194                 2.8478                 2.7339
 IR Inten    --      1.0761                 0.3888                 1.1308

                      7                      8                      9
                      A                      A                      A
 Frequencies --    591.8594               691.2478              1048.5131
 Red. masses --     12.3250                18.2004                13.9613
 Frc consts  --      2.5437                 5.1239                 9.0433
 IR Inten    --      2.0342                 3.8546               249.3275

                     10                     11                     12
                      A                      A                      A
 Frequencies --   1193.7948              1309.1505              1825.4567
 Red. masses --     13.5506                13.2374                12.1590
 Frc consts  --     11.3781                13.3669                23.8722
 IR Inten    --    221.1370               188.2328                64.1384

 - Thermochemistry -
 -------------------
 Temperature   298.150 Kelvin.  Pressure   1.00000 Atm.
 Atom     1 has atomic number  6 and mass  12.00000

 Molecular mass:   115.96406 amu.
 Principal axes and moments of inertia in atomic units:
                           1         2         3
     Eigenvalues --   402.58530 805.070501207.65580
           X            0.66717  -0.03265   0.74419
           Y            0.71460   0.31010  -0.62704
           Z           -0.21031   0.95014   0.23022
 This molecule is an asymmetric top.
 Rotational symmetry number  1.
 Rotational temperatures (Kelvin)      0.21514     0.10759     0.07172
 Rotational constants (GHZ):           4.48288     2.24172     1.49442
 Zero-point vibrational energy      52102.3 (Joules/Mol)
                                   12.45274 (Kcal/Mol)
 Warning -- explicit consideration of   7 degrees of freedom as
           vibrations may cause significant error
 Vibrational temperatures:    243.08   276.57   488.53   545.31   655.53
          (Kelvin)            741.62   851.55   994.55  1508.57  1717.60
                             1883.57  2626.42

 Zero-point correction=                           0.019845 (Hartree/Particle)
 Thermal correction to Energy=                    0.025377
 Thermal correction to Enthalpy=                  0.026321
 Thermal correction to Gibbs Free Energy=        -0.010198
 Sum of electronic and zero-point Energies=           -836.016524
 Sum of electronic and thermal Energies=              -836.010991
 Sum of electronic and thermal Enthalpies=            -836.010047
 Sum of electronic and thermal Free Energies=         -836.046566

                     E (Thermal)             CV                S
                      KCal/Mol        Cal/Mol-Kelvin    Cal/Mol-Kelvin
 Total                   15.924             17.966             76.861
 Electronic               0.000              0.000              0.000
 Translational            0.889              2.981             40.160
 Rotational               0.889              2.981             27.462
 Vibrational             14.147             12.005              9.239
 Vibration     1          0.625              1.881              2.447
 Vibration     2          0.634              1.851              2.206
 Vibration     3          0.719              1.596              1.214
 Vibration     4          0.749              1.515              1.043
 Vibration     5          0.814              1.348              0.779
 Vibration     6          0.870              1.216              0.621
 Vibration     7          0.949              1.049              0.464

 Optimization completed.
    -- Stationary point found.
 Normal termination of Gaussian 09 at Thu Jun 13 10:39:30 2024.
