 Gaussian 16, Revision C.01,
 Gaussian 16:  ES64L-G16RevC.01  3-Jul-2019

 ---------------------------------------
 #P M052X/6-31G* scrf(SMD,solvent=water)
 ---------------------------------------

 ----------------
 Cl2F2_wat_M05-2x
 ----------------
 Symbolic Z-matrix:
 Charge =  0 Multiplicity = 1

                         Standard orientation:
 ---------------------------------------------------------------------
 Center     Atomic      Atomic             Coordinates (Angstroms)
 Number     Number       Type             X           Y           Z
 ---------------------------------------------------------------------
      1          6           0        0.539564   -0.386574    0.000611
      2          6           0       -0.539567    0.386577    0.000412
      3          9           0        0.448246   -1.712966    0.000000
      4         17           0        2.145474    0.223780   -0.000242
      5          9           0       -0.448246    1.712967    0.000023
      6         17           0       -2.145473   -0.223782   -0.000132
 ---------------------------------------------------------------------

 SCF Done:  E(RM052X) =  -1196.14589358     A.U. after   11 cycles

 The electronic state is 1-A.
 Alpha  occ. eigenvalues -- -102.80638-102.80638 -25.35769 -25.35769 -10.74543
 Alpha  occ. eigenvalues --  -10.74424  -9.85193  -9.85192  -7.57831  -7.57828
 Alpha  occ. eigenvalues --   -7.57154  -7.57154  -7.57147  -7.57147  -1.40851
 Alpha  occ. eigenvalues --   -1.40275  -1.02320  -0.99848  -0.86725  -0.73029
 Alpha  occ. eigenvalues --   -0.67650  -0.63930  -0.62242  -0.59089  -0.58781
 Alpha  occ. eigenvalues --   -0.53648  -0.48914  -0.45384  -0.43578  -0.42892
 Alpha  occ. eigenvalues --   -0.41214  -0.31546
 Alpha virt. eigenvalues --    0.03948   0.04313   0.10224   0.13449   0.24736
 Alpha virt. eigenvalues --    0.37367   0.39218   0.39833   0.45120   0.47301
 Alpha virt. eigenvalues --    0.47395   0.47919   0.47975   0.49159   0.57876

 Mulliken charges:
               1
     1  C    0.166303
     2  C    0.166304
     3  F   -0.239880
     4  Cl   0.073575
     5  F   -0.239878
     6  Cl   0.073577
 Sum of Mulliken charges =  -0.00000

 Dipole moment (field-independent basis, Debye):
    X=             -0.0000    Y=              0.0000    Z=              0.0005  Tot=              0.0005
 Quadrupole moment (field-independent basis, Debye-Ang):
   XX=            -43.7098   YY=            -47.3653   ZZ=            -45.1018
   XY=              1.0165   XZ=             -0.0002   YZ=             -0.0002

 Normal termination of Gaussian 16 at Thu Jul 10 14:45:30 2025.
