 Gaussian 16, Revision C.01,
 Gaussian 16:  ES64L-G16RevC.01  3-Jul-2019

 -------------------------------------------
 #P M052X/6-31G* scrf(SMD,solvent=n-octanol)
 -------------------------------------------

 ----------------
 Cl2F2_oct_M05-2x
 ----------------
 Symbolic Z-matrix:
 Charge =  0 Multiplicity = 1

                         Standard orientation:
 ---------------------------------------------------------------------
 Center     Atomic      Atomic             Coordinates (Angstroms)
 Number     Number       Type             X           Y           Z
 ---------------------------------------------------------------------
      1          6           0       -0.539889   -0.386348    0.000312
      2          6           0        0.539895    0.386353    0.000211
      3          9           0       -0.449145   -1.712730   -0.000086
      4         17           0       -2.146408    0.224037   -0.000035
      5          9           0        0.449146    1.712730   -0.000034
      6         17           0        2.146406   -0.224039   -0.000085
 ---------------------------------------------------------------------

 SCF Done:  E(RM052X) =  -1196.15153543     A.U. after   11 cycles

 The electronic state is 1-A.
 Alpha  occ. eigenvalues -- -102.80674-102.80674 -25.35802 -25.35802 -10.74610
 Alpha  occ. eigenvalues --  -10.74491  -9.85229  -9.85228  -7.57867  -7.57865
 Alpha  occ. eigenvalues --   -7.57189  -7.57189  -7.57183  -7.57182  -1.40888
 Alpha  occ. eigenvalues --   -1.40310  -1.02347  -0.99873  -0.86779  -0.73057
 Alpha  occ. eigenvalues --   -0.67679  -0.63965  -0.62289  -0.59116  -0.58818
 Alpha  occ. eigenvalues --   -0.53673  -0.48946  -0.45419  -0.43611  -0.42915
 Alpha  occ. eigenvalues --   -0.41242  -0.31608
 Alpha virt. eigenvalues --    0.03864   0.04233   0.10161   0.13399   0.24693
 Alpha virt. eigenvalues --    0.37339   0.39165   0.39795   0.45075   0.47253
 Alpha virt. eigenvalues --    0.47362   0.47893   0.47952   0.49101   0.57826

 Mulliken charges:
               1
     1  C    0.164376
     2  C    0.164378
     3  F   -0.238888
     4  Cl   0.074508
     5  F   -0.238885
     6  Cl   0.074511
 Sum of Mulliken charges =  -0.00000

 Dipole moment (field-independent basis, Debye):
    X=              0.0000    Y=              0.0000    Z=              0.0003  Tot=              0.0003
 Quadrupole moment (field-independent basis, Debye-Ang):
   XX=            -43.6796   YY=            -47.3360   ZZ=            -45.1088
   XY=             -1.0145   XZ=              0.0000   YZ=             -0.0001

 Normal termination of Gaussian 16 at Thu Jul 10 13:54:04 2025.
