 Gaussian 16, Revision C.01,
 Gaussian 16:  ES64L-G16RevC.01  3-Jul-2019

 ---------------
 #P M052X/6-31G*
 ---------------

 -----------------------
 Cl2F2_oct_vaccum_M05-2x
 -----------------------
 Symbolic Z-matrix:
 Charge =  0 Multiplicity = 1

                         Standard orientation:
 ---------------------------------------------------------------------
 Center     Atomic      Atomic             Coordinates (Angstroms)
 Number     Number       Type             X           Y           Z
 ---------------------------------------------------------------------
      1          6           0       -0.539889   -0.386348    0.000312
      2          6           0        0.539895    0.386353    0.000211
      3          9           0       -0.449145   -1.712730   -0.000086
      4         17           0       -2.146408    0.224037   -0.000035
      5          9           0        0.449146    1.712730   -0.000034
      6         17           0        2.146406   -0.224039   -0.000085
 ---------------------------------------------------------------------

 SCF Done:  E(RM052X) =  -1196.15062929     A.U. after   13 cycles

 The electronic state is 1-A.
 Alpha  occ. eigenvalues -- -102.80902-102.80902 -25.35976 -25.35976 -10.74925
 Alpha  occ. eigenvalues --  -10.74807  -9.85459  -9.85458  -7.58099  -7.58096
 Alpha  occ. eigenvalues --   -7.57416  -7.57416  -7.57413  -7.57412  -1.41071
 Alpha  occ. eigenvalues --   -1.40487  -1.02621  -1.00123  -0.87071  -0.73198
 Alpha  occ. eigenvalues --   -0.67846  -0.64190  -0.62544  -0.59293  -0.59001
 Alpha  occ. eigenvalues --   -0.53847  -0.49163  -0.45669  -0.43848  -0.43107
 Alpha  occ. eigenvalues --   -0.41433  -0.31932
 Alpha virt. eigenvalues --    0.03551   0.03844   0.09863   0.13110   0.24395
 Alpha virt. eigenvalues --    0.37114   0.38906   0.39568   0.44761   0.46955
 Alpha virt. eigenvalues --    0.47126   0.47695   0.47799   0.48877   0.57525

 Mulliken charges:
               1
     1  C    0.155481
     2  C    0.155483
     3  F   -0.233852
     4  Cl   0.078368
     5  F   -0.233849
     6  Cl   0.078370
 Sum of Mulliken charges =  -0.00000

 Dipole moment (field-independent basis, Debye):
    X=              0.0000    Y=              0.0000    Z=              0.0003  Tot=              0.0003
 Quadrupole moment (field-independent basis, Debye-Ang):
   XX=            -43.5951   YY=            -47.1747   ZZ=            -45.1292
   XY=             -0.9888   XZ=              0.0000   YZ=             -0.0001

 Normal termination of Gaussian 16 at Thu Jul 10 13:53:58 2025.
