 Gaussian 16, Revision C.01,
 Gaussian 16:  ES64L-G16RevC.01  3-Jul-2019

 -------------------------------------------
 #P M052X/6-31G* scrf(SMD,solvent=n-octanol)
 -------------------------------------------

 -------------
 F4_oct_M05-2x
 -------------
 Symbolic Z-matrix:
 Charge =  0 Multiplicity = 1

                         Standard orientation:
 ---------------------------------------------------------------------
 Center     Atomic      Atomic             Coordinates (Angstroms)
 Number     Number       Type             X           Y           Z
 ---------------------------------------------------------------------
      1          6           0       -0.659758    0.000001    0.000002
      2          6           0        0.659758   -0.000001   -0.000005
      3          9           0       -1.386551   -1.103687   -0.000012
      4          9           0       -1.386549    1.103688    0.000028
      5          9           0        1.386551    1.103687    0.000013
      6          9           0        1.386549   -1.103688   -0.000027
 ---------------------------------------------------------------------

 SCF Done:  E(RM052X) =  -475.456321082     A.U. after    9 cycles

 The electronic state is 1-A.
 Alpha  occ. eigenvalues --  -25.35659 -25.35658 -25.35658 -25.35658 -10.76463
 Alpha  occ. eigenvalues --  -10.76341  -1.44345  -1.42733  -1.38149  -1.36984
 Alpha  occ. eigenvalues --   -0.91532  -0.76099  -0.71352  -0.70285  -0.65502
 Alpha  occ. eigenvalues --   -0.65331  -0.61085  -0.58386  -0.55918  -0.55360
 Alpha  occ. eigenvalues --   -0.54599  -0.53372  -0.52781  -0.31662
 Alpha virt. eigenvalues --    0.08670   0.12988   0.19898   0.21376   0.46008
 Alpha virt. eigenvalues --    0.49371   0.54516   0.54845   0.56569   0.61282
 Alpha virt. eigenvalues --    0.63967   0.67046   0.68584   1.01174   1.12918

 Mulliken charges:
               1
     1  C    0.494998
     2  C    0.494998
     3  F   -0.247499
     4  F   -0.247499
     5  F   -0.247499
     6  F   -0.247499
 Sum of Mulliken charges =  -0.00000

 Dipole moment (field-independent basis, Debye):
    X=              0.0000    Y=             -0.0000    Z=             -0.0000  Tot=              0.0000
 Quadrupole moment (field-independent basis, Debye-Ang):
   XX=            -31.6242   YY=            -31.4866   ZZ=            -28.5963
   XY=             -0.0000   XZ=              0.0000   YZ=             -0.0001

 Normal termination of Gaussian 16 at Thu Jul 10 14:08:48 2025.
