 Gaussian 16, Revision C.01,
 Gaussian 16:  ES64L-G16RevC.01  3-Jul-2019

 ---------------
 #P M052X/6-31G*
 ---------------

 --------------------
 F4_oct_vaccum_M05-2x
 --------------------
 Symbolic Z-matrix:
 Charge =  0 Multiplicity = 1

                         Standard orientation:
 ---------------------------------------------------------------------
 Center     Atomic      Atomic             Coordinates (Angstroms)
 Number     Number       Type             X           Y           Z
 ---------------------------------------------------------------------
      1          6           0       -0.659758    0.000001    0.000002
      2          6           0        0.659758   -0.000001   -0.000005
      3          9           0       -1.386551   -1.103687   -0.000012
      4          9           0       -1.386549    1.103688    0.000028
      5          9           0        1.386551    1.103687    0.000013
      6          9           0        1.386549   -1.103688   -0.000027
 ---------------------------------------------------------------------

 SCF Done:  E(RM052X) =  -475.458923267     A.U. after   11 cycles

 The electronic state is 1-A.
 Alpha  occ. eigenvalues --  -25.36164 -25.36164 -25.36163 -25.36163 -10.77127
 Alpha  occ. eigenvalues --  -10.77005  -1.44881  -1.43253  -1.38657  -1.37483
 Alpha  occ. eigenvalues --   -0.92213  -0.76548  -0.71849  -0.70753  -0.66129
 Alpha  occ. eigenvalues --   -0.65756  -0.61625  -0.58839  -0.56401  -0.55839
 Alpha  occ. eigenvalues --   -0.55045  -0.53857  -0.53221  -0.32400
 Alpha virt. eigenvalues --    0.07887   0.12310   0.19200   0.20650   0.45459
 Alpha virt. eigenvalues --    0.48756   0.53706   0.53805   0.55816   0.60580
 Alpha virt. eigenvalues --    0.63151   0.66025   0.67948   1.00341   1.12638

 Mulliken charges:
               1
     1  C    0.482875
     2  C    0.482875
     3  F   -0.241438
     4  F   -0.241437
     5  F   -0.241438
     6  F   -0.241437
 Sum of Mulliken charges =  -0.00000

 Dipole moment (field-independent basis, Debye):
    X=              0.0000    Y=             -0.0000    Z=             -0.0000  Tot=              0.0000
 Quadrupole moment (field-independent basis, Debye-Ang):
   XX=            -31.4266   YY=            -31.3304   ZZ=            -28.6452
   XY=             -0.0000   XZ=              0.0000   YZ=             -0.0000

 Normal termination of Gaussian 16 at Thu Jul 10 14:10:29 2025.
