 Gaussian 16, Revision C.01,
 Gaussian 16:  ES64L-G16RevC.01  3-Jul-2019

 ---------------------------------------
 #P M052X/6-31G* scrf(SMD,solvent=water)
 ---------------------------------------

 -------------
 F4_wat_M05-2x
 -------------
 Symbolic Z-matrix:
 Charge =  0 Multiplicity = 1

                         Standard orientation:
 ---------------------------------------------------------------------
 Center     Atomic      Atomic             Coordinates (Angstroms)
 Number     Number       Type             X           Y           Z
 ---------------------------------------------------------------------
      1          6           0        0.659597    0.000000    0.000002
      2          6           0       -0.659597    0.000000   -0.000005
      3          9           0        1.386438    1.103575   -0.000012
      4          9           0        1.386438   -1.103575    0.000028
      5          9           0       -1.386438   -1.103575    0.000013
      6          9           0       -1.386438    1.103575   -0.000027
 ---------------------------------------------------------------------

 SCF Done:  E(RM052X) =  -475.452532538     A.U. after    9 cycles

 The electronic state is 1-A.
 Alpha  occ. eigenvalues --  -25.35580 -25.35580 -25.35579 -25.35579 -10.76351
 Alpha  occ. eigenvalues --  -10.76229  -1.44266  -1.42656  -1.38073  -1.36908
 Alpha  occ. eigenvalues --   -0.91433  -0.76032  -0.71280  -0.70217  -0.65407
 Alpha  occ. eigenvalues --   -0.65267  -0.61003  -0.58319  -0.55844  -0.55287
 Alpha  occ. eigenvalues --   -0.54532  -0.53302  -0.52714  -0.31547
 Alpha virt. eigenvalues --    0.08808   0.13097   0.20024   0.21498   0.46100
 Alpha virt. eigenvalues --    0.49483   0.54631   0.55033   0.56692   0.61420
 Alpha virt. eigenvalues --    0.64101   0.67217   0.68687   1.01318   1.12954

 Mulliken charges:
               1
     1  C    0.497133
     2  C    0.497133
     3  F   -0.248567
     4  F   -0.248567
     5  F   -0.248567
     6  F   -0.248567
 Sum of Mulliken charges =  -0.00000

 Dipole moment (field-independent basis, Debye):
    X=             -0.0000    Y=              0.0000    Z=             -0.0000  Tot=              0.0000
 Quadrupole moment (field-independent basis, Debye-Ang):
   XX=            -31.6603   YY=            -31.5135   ZZ=            -28.5864
   XY=             -0.0000   XZ=             -0.0000   YZ=              0.0001

 Normal termination of Gaussian 16 at Thu Jul 10 14:46:34 2025.
