 Gaussian 16, Revision C.01,
 Gaussian 16:  ES64L-G16RevC.01  3-Jul-2019

 ---------------
 #P M052X/6-31G*
 ---------------

 ---------------------
 Cl4_oct_vaccum_M05-2x
 ---------------------
 Symbolic Z-matrix:
 Charge =  0 Multiplicity = 1

                         Standard orientation:
 ---------------------------------------------------------------------
 Center     Atomic      Atomic             Coordinates (Angstroms)
 Number     Number       Type             X           Y           Z
 ---------------------------------------------------------------------
      1          6           0       -0.669796   -0.000002    0.000011
      2          6           0        0.669813   -0.000004    0.000029
      3         17           0       -1.600144    1.458342   -0.000000
      4         17           0       -1.600147   -1.458342   -0.000053
      5         17           0        1.600145   -1.458343   -0.000012
      6         17           0        1.600140    1.458345    0.000051
 ---------------------------------------------------------------------

 SCF Done:  E(RM052X) =  -1916.84638471     A.U. after   13 cycles

 The electronic state is 1-A.
 Alpha  occ. eigenvalues -- -102.80870-102.80870-102.80870-102.80870 -10.73080
 Alpha  occ. eigenvalues --  -10.72969  -9.85362  -9.85360  -9.85360  -9.85359
 Alpha  occ. eigenvalues --   -7.58011  -7.58007  -7.58007  -7.58005  -7.57322
 Alpha  occ. eigenvalues --   -7.57320  -7.57320  -7.57319  -7.57299  -7.57299
 Alpha  occ. eigenvalues --   -7.57297  -7.57297  -1.08055  -1.01863  -0.97335
 Alpha  occ. eigenvalues --   -0.94828  -0.83834  -0.65170  -0.59104  -0.58762
 Alpha  occ. eigenvalues --   -0.53394  -0.50696  -0.45761  -0.43709  -0.42694
 Alpha  occ. eigenvalues --   -0.42203  -0.41665  -0.40912  -0.37994  -0.31796
 Alpha virt. eigenvalues --    0.00191   0.02345   0.03473   0.04108   0.17964
 Alpha virt. eigenvalues --    0.29699   0.30130   0.35463   0.36032   0.42040
 Alpha virt. eigenvalues --    0.43177   0.43434   0.45228   0.46344   0.46615

 Mulliken charges:
               1
     1  C   -0.217963
     2  C   -0.217963
     3  Cl   0.108979
     4  Cl   0.108980
     5  Cl   0.108985
     6  Cl   0.108982
 Sum of Mulliken charges =  -0.00000

 Dipole moment (field-independent basis, Debye):
    X=              0.0000    Y=             -0.0000    Z=             -0.0000  Tot=              0.0001
 Quadrupole moment (field-independent basis, Debye-Ang):
   XX=            -60.2537   YY=            -58.7205   ZZ=            -61.5889
   XY=             -0.0000   XZ=              0.0000   YZ=              0.0001

 Normal termination of Gaussian 16 at Thu Jul 10 14:07:14 2025.
