 Gaussian 16, Revision C.01,
 Gaussian 16:  ES64L-G16RevC.01  3-Jul-2019

 ---------------------------------------
 #P M052X/6-31G* scrf(SMD,solvent=water)
 ---------------------------------------

 --------------
 Cl4_wat_M05-2x
 --------------
 Symbolic Z-matrix:
 Charge =  0 Multiplicity = 1

                         Standard orientation:
 ---------------------------------------------------------------------
 Center     Atomic      Atomic             Coordinates (Angstroms)
 Number     Number       Type             X           Y           Z
 ---------------------------------------------------------------------
      1          6           0       -0.669663   -0.000002    0.000014
      2          6           0        0.669679   -0.000004    0.000032
      3         17           0       -1.599835    1.457969    0.000000
      4         17           0       -1.599839   -1.457968   -0.000054
      5         17           0        1.599836   -1.457970   -0.000013
      6         17           0        1.599832    1.457971    0.000050
 ---------------------------------------------------------------------

 SCF Done:  E(RM052X) =  -1916.84339775     A.U. after   10 cycles

 The electronic state is 1-A.
 Alpha  occ. eigenvalues -- -102.80823-102.80823-102.80823-102.80823 -10.72922
 Alpha  occ. eigenvalues --  -10.72811  -9.85313  -9.85311  -9.85310  -9.85309
 Alpha  occ. eigenvalues --   -7.57959  -7.57955  -7.57955  -7.57954  -7.57272
 Alpha  occ. eigenvalues --   -7.57271  -7.57271  -7.57270  -7.57252  -7.57252
 Alpha  occ. eigenvalues --   -7.57250  -7.57250  -1.07966  -1.01805  -0.97281
 Alpha  occ. eigenvalues --   -0.94774  -0.83712  -0.65079  -0.59024  -0.58667
 Alpha  occ. eigenvalues --   -0.53256  -0.50604  -0.45698  -0.43677  -0.42677
 Alpha  occ. eigenvalues --   -0.42168  -0.41649  -0.40877  -0.37969  -0.31679
 Alpha virt. eigenvalues --    0.00373   0.02502   0.03635   0.04245   0.18152
 Alpha virt. eigenvalues --    0.29721   0.30203   0.35453   0.36020   0.42219
 Alpha virt. eigenvalues --    0.43218   0.43410   0.45436   0.46462   0.46756

 Mulliken charges:
               1
     1  C   -0.211965
     2  C   -0.211964
     3  Cl   0.105980
     4  Cl   0.105981
     5  Cl   0.105986
     6  Cl   0.105982
 Sum of Mulliken charges =  -0.00000

 Dipole moment (field-independent basis, Debye):
    X=              0.0001    Y=             -0.0000    Z=             -0.0000  Tot=              0.0001
 Quadrupole moment (field-independent basis, Debye-Ang):
   XX=            -60.3339   YY=            -58.7638   ZZ=            -61.5937
   XY=             -0.0000   XZ=              0.0000   YZ=              0.0001

 Normal termination of Gaussian 16 at Thu Jul 10 14:44:14 2025.
