 Gaussian 16, Revision C.01,
 Gaussian 16:  ES64L-G16RevC.01  3-Jul-2019

 -------------------------------------------
 #P M052X/6-31G* scrf(SMD,solvent=n-octanol)
 -------------------------------------------

 --------------
 Cl4_oct_M05-2x
 --------------
 Symbolic Z-matrix:
 Charge =  0 Multiplicity = 1

                         Standard orientation:
 ---------------------------------------------------------------------
 Center     Atomic      Atomic             Coordinates (Angstroms)
 Number     Number       Type             X           Y           Z
 ---------------------------------------------------------------------
      1          6           0       -0.669796   -0.000002    0.000011
      2          6           0        0.669813   -0.000004    0.000029
      3         17           0       -1.600144    1.458342   -0.000000
      4         17           0       -1.600147   -1.458342   -0.000053
      5         17           0        1.600145   -1.458343   -0.000012
      6         17           0        1.600140    1.458345    0.000051
 ---------------------------------------------------------------------

 SCF Done:  E(RM052X) =  -1916.85069510     A.U. after   10 cycles

 The electronic state is 1-A.
 Alpha  occ. eigenvalues -- -102.80830-102.80830-102.80830-102.80830 -10.72956
 Alpha  occ. eigenvalues --  -10.72845  -9.85319  -9.85317  -9.85317  -9.85316
 Alpha  occ. eigenvalues --   -7.57966  -7.57962  -7.57962  -7.57961  -7.57279
 Alpha  occ. eigenvalues --   -7.57277  -7.57277  -7.57277  -7.57258  -7.57257
 Alpha  occ. eigenvalues --   -7.57256  -7.57256  -1.07965  -1.01802  -0.97281
 Alpha  occ. eigenvalues --   -0.94778  -0.83729  -0.65088  -0.59027  -0.58673
 Alpha  occ. eigenvalues --   -0.53270  -0.50611  -0.45703  -0.43677  -0.42675
 Alpha  occ. eigenvalues --   -0.42171  -0.41648  -0.40881  -0.37972  -0.31701
 Alpha virt. eigenvalues --    0.00335   0.02468   0.03593   0.04213   0.18117
 Alpha virt. eigenvalues --    0.29719   0.30191   0.35458   0.36022   0.42202
 Alpha virt. eigenvalues --    0.43213   0.43418   0.45405   0.46443   0.46735

 Mulliken charges:
               1
     1  C   -0.213146
     2  C   -0.213145
     3  Cl   0.106570
     4  Cl   0.106571
     5  Cl   0.106576
     6  Cl   0.106573
 Sum of Mulliken charges =  -0.00000

 Dipole moment (field-independent basis, Debye):
    X=              0.0001    Y=             -0.0000    Z=             -0.0000  Tot=              0.0001
 Quadrupole moment (field-independent basis, Debye-Ang):
   XX=            -60.3156   YY=            -58.7464   ZZ=            -61.5964
   XY=             -0.0000   XZ=              0.0000   YZ=              0.0001

 Normal termination of Gaussian 16 at Thu Jul 10 14:05:56 2025.
