 Gaussian 16, Revision C.01,
 Gaussian 16:  ES64L-G16RevC.01  3-Jul-2019

 ---------------
 #P M052X/6-31G*
 ---------------

 ----------------------
 H3F1_oct_vaccum_M05-2x
 ----------------------
 Symbolic Z-matrix:
 Charge =  0 Multiplicity = 1

                         Standard orientation:
 ---------------------------------------------------------------------
 Center     Atomic      Atomic             Coordinates (Angstroms)
 Number     Number       Type             X           Y           Z
 ---------------------------------------------------------------------
      1          6           0       -1.179385   -0.200585   -0.000003
      2          6           0       -0.025369    0.438493   -0.000000
      3          1           0       -2.101790    0.367539    0.000022
      4          1           0       -1.233011   -1.283978   -0.000020
      5          9           0        1.160182   -0.224807   -0.000001
      6          1           0        0.121687    1.512251    0.000029
 ---------------------------------------------------------------------

 SCF Done:  E(RM052X) =  -177.792791302     A.U. after   14 cycles

 The electronic state is 1-A.
 Alpha  occ. eigenvalues --  -25.30154 -10.66263 -10.57480  -1.34096  -0.87775
 Alpha  occ. eigenvalues --   -0.69762  -0.60924  -0.56073  -0.54388  -0.48028
 Alpha  occ. eigenvalues --   -0.45072  -0.32565
 Alpha virt. eigenvalues --    0.07047   0.17035   0.18863   0.20847   0.29651
 Alpha virt. eigenvalues --    0.39154   0.55325   0.59322   0.63852   0.67594
 Alpha virt. eigenvalues --    0.69254   0.73754   0.93875   0.94340   1.02139

 Mulliken charges:
               1
     1  C   -0.440570
     2  C    0.178201
     3  H    0.185234
     4  H    0.195125
     5  F   -0.294175
     6  H    0.176185
 Sum of Mulliken charges =  -0.00000

 Dipole moment (field-independent basis, Debye):
    X=             -1.1991    Y=              0.8135    Z=              0.0000  Tot=              1.4490
 Quadrupole moment (field-independent basis, Debye-Ang):
   XX=            -17.1414   YY=            -14.9515   ZZ=            -18.6024
   XY=              0.6482   XZ=             -0.0000   YZ=              0.0001

 Normal termination of Gaussian 16 at Thu Jul 10 14:23:15 2025.
