 Gaussian 16, Revision C.01,
 Gaussian 16:  ES64L-G16RevC.01  3-Jul-2019

 ---------------------------------------
 #P M052X/6-31G* scrf(SMD,solvent=water)
 ---------------------------------------

 ---------------
 H3F1_wat_M05-2x
 ---------------
 Symbolic Z-matrix:
 Charge =  0 Multiplicity = 1

                         Standard orientation:
 ---------------------------------------------------------------------
 Center     Atomic      Atomic             Coordinates (Angstroms)
 Number     Number       Type             X           Y           Z
 ---------------------------------------------------------------------
      1          6           0       -1.179114   -0.201336   -0.000001
      2          6           0       -0.026153    0.439922    0.000006
      3          1           0       -2.101121    0.366732    0.000017
      4          1           0       -1.231703   -1.284549   -0.000020
      5          9           0        1.160282   -0.225174   -0.000006
      6          1           0        0.121883    1.512867    0.000029
 ---------------------------------------------------------------------

 SCF Done:  E(RM052X) =  -177.792004038     A.U. after   11 cycles

 The electronic state is 1-A.
 Alpha  occ. eigenvalues --  -25.30326 -10.65497 -10.56568  -1.34289  -0.87124
 Alpha  occ. eigenvalues --   -0.69232  -0.60502  -0.55570  -0.54691  -0.47210
 Alpha  occ. eigenvalues --   -0.44541  -0.32234
 Alpha virt. eigenvalues --    0.07546   0.18349   0.20513   0.22621   0.30888
 Alpha virt. eigenvalues --    0.40246   0.56153   0.59551   0.63971   0.68283
 Alpha virt. eigenvalues --    0.69775   0.74454   0.95287   0.95460   1.03365

 Mulliken charges:
               1
     1  C   -0.486668
     2  C    0.148800
     3  H    0.218162
     4  H    0.215296
     5  F   -0.314544
     6  H    0.218954
 Sum of Mulliken charges =  -0.00000

 Dipole moment (field-independent basis, Debye):
    X=             -1.4676    Y=              1.0147    Z=              0.0000  Tot=              1.7842
 Quadrupole moment (field-independent basis, Debye-Ang):
   XX=            -16.9214   YY=            -14.5643   ZZ=            -18.6435
   XY=              0.6905   XZ=             -0.0000   YZ=              0.0001

 Normal termination of Gaussian 16 at Thu Jul 10 14:46:27 2025.
