 Gaussian 16, Revision C.01,
 Gaussian 16:  ES64L-G16RevC.01  3-Jul-2019

 -------------------------------------------
 #P M052X/6-31G* scrf(SMD,solvent=n-octanol)
 -------------------------------------------

 ---------------
 H3F1_oct_M05-2x
 ---------------
 Symbolic Z-matrix:
 Charge =  0 Multiplicity = 1

                         Standard orientation:
 ---------------------------------------------------------------------
 Center     Atomic      Atomic             Coordinates (Angstroms)
 Number     Number       Type             X           Y           Z
 ---------------------------------------------------------------------
      1          6           0       -1.179385   -0.200585   -0.000003
      2          6           0       -0.025369    0.438493   -0.000000
      3          1           0       -2.101790    0.367539    0.000022
      4          1           0       -1.233011   -1.283978   -0.000020
      5          9           0        1.160182   -0.224807   -0.000001
      6          1           0        0.121687    1.512251    0.000029
 ---------------------------------------------------------------------

 SCF Done:  E(RM052X) =  -177.794573746     A.U. after   11 cycles

 The electronic state is 1-A.
 Alpha  occ. eigenvalues --  -25.30317 -10.65566 -10.56650  -1.34318  -0.87173
 Alpha  occ. eigenvalues --   -0.69285  -0.60562  -0.55635  -0.54680  -0.47295
 Alpha  occ. eigenvalues --   -0.44562  -0.32234
 Alpha virt. eigenvalues --    0.07533   0.18235   0.20313   0.22413   0.30763
 Alpha virt. eigenvalues --    0.40153   0.56071   0.59557   0.64027   0.68222
 Alpha virt. eigenvalues --    0.69741   0.74410   0.95078   0.95318   1.03233

 Mulliken charges:
               1
     1  C   -0.480285
     2  C    0.152801
     3  H    0.213495
     4  H    0.212515
     5  F   -0.311008
     6  H    0.212481
 Sum of Mulliken charges =  -0.00000

 Dipole moment (field-independent basis, Debye):
    X=             -1.4263    Y=              0.9794    Z=              0.0000  Tot=              1.7302
 Quadrupole moment (field-independent basis, Debye-Ang):
   XX=            -16.9474   YY=            -14.6281   ZZ=            -18.6373
   XY=              0.6828   XZ=             -0.0000   YZ=              0.0001

 Normal termination of Gaussian 16 at Thu Jul 10 14:23:16 2025.
