 Gaussian 16, Revision C.01,
 Gaussian 16:  ES64L-G16RevC.01  3-Jul-2019

 -------------------------------------------
 #P M052X/6-31G* scrf(SMD,solvent=n-octanol)
 -------------------------------------------

 --------------------
 H2F2_iso1_oct_M05-2x
 --------------------
 Symbolic Z-matrix:
 Charge =  0 Multiplicity = 1

                         Standard orientation:
 ---------------------------------------------------------------------
 Center     Atomic      Atomic             Coordinates (Angstroms)
 Number     Number       Type             X           Y           Z
 ---------------------------------------------------------------------
      1          6           0        1.385546   -0.000000    0.000024
      2          6           0        0.070175   -0.000000    0.000048
      3          1           0        1.924713    0.937081   -0.000024
      4          1           0        1.924712   -0.937081    0.000011
      5          9           0       -0.699097   -1.082885   -0.000004
      6          9           0       -0.699097    1.082885   -0.000043
 ---------------------------------------------------------------------

 SCF Done:  E(RM052X) =  -277.028121759     A.U. after   11 cycles

 The electronic state is 1-A.
 Alpha  occ. eigenvalues --  -25.33940 -25.33939 -10.75120 -10.57390  -1.42066
 Alpha  occ. eigenvalues --   -1.35536  -0.88882  -0.73480  -0.66706  -0.61855
 Alpha  occ. eigenvalues --   -0.60847  -0.53987  -0.52577  -0.51231  -0.48557
 Alpha  occ. eigenvalues --   -0.32369
 Alpha virt. eigenvalues --    0.08254   0.18335   0.20039   0.23338   0.33995
 Alpha virt. eigenvalues --    0.37978   0.56386   0.58314   0.60850   0.65570
 Alpha virt. eigenvalues --    0.68765   0.72358   0.90789   1.00782   1.02064

 Mulliken charges:
               1
     1  C   -0.539324
     2  C    0.603829
     3  H    0.231542
     4  H    0.231542
     5  F   -0.263795
     6  F   -0.263795
 Sum of Mulliken charges =  -0.00000

 Dipole moment (field-independent basis, Debye):
    X=              1.5556    Y=             -0.0000    Z=              0.0000  Tot=              1.5556
 Quadrupole moment (field-independent basis, Debye-Ang):
   XX=            -19.5544   YY=            -21.4557   ZZ=            -22.0194
   XY=              0.0000   XZ=             -0.0002   YZ=             -0.0000

 Normal termination of Gaussian 16 at Thu Jul 10 14:19:03 2025.
