 Gaussian 16, Revision C.01,
 Gaussian 16:  ES64L-G16RevC.01  3-Jul-2019

 ---------------------------------------
 #P M052X/6-31G* scrf(SMD,solvent=water)
 ---------------------------------------

 --------------------
 H2F2_iso1_wat_M05-2x
 --------------------
 Symbolic Z-matrix:
 Charge =  0 Multiplicity = 1

                         Standard orientation:
 ---------------------------------------------------------------------
 Center     Atomic      Atomic             Coordinates (Angstroms)
 Number     Number       Type             X           Y           Z
 ---------------------------------------------------------------------
      1          6           0       -1.385888   -0.000001    0.000024
      2          6           0       -0.070760   -0.000000    0.000048
      3          1           0       -1.924250   -0.937133   -0.000024
      4          1           0       -1.924250    0.937132    0.000011
      5          9           0        0.699355    1.082701   -0.000003
      6          9           0        0.699355   -1.082701   -0.000043
 ---------------------------------------------------------------------

 SCF Done:  E(RM052X) =  -277.025045970     A.U. after   11 cycles

 The electronic state is 1-A.
 Alpha  occ. eigenvalues --  -25.33927 -25.33926 -10.75061 -10.57269  -1.42046
 Alpha  occ. eigenvalues --   -1.35515  -0.88822  -0.73456  -0.66689  -0.61838
 Alpha  occ. eigenvalues --   -0.60773  -0.53987  -0.52546  -0.51183  -0.48453
 Alpha  occ. eigenvalues --   -0.32329
 Alpha virt. eigenvalues --    0.08312   0.18490   0.20248   0.23404   0.34120
 Alpha virt. eigenvalues --    0.38110   0.56393   0.58354   0.60907   0.65620
 Alpha virt. eigenvalues --    0.68840   0.72476   0.90910   1.00937   1.02244

 Mulliken charges:
               1
     1  C   -0.543734
     2  C    0.602996
     3  H    0.235621
     4  H    0.235621
     5  F   -0.265252
     6  F   -0.265252
 Sum of Mulliken charges =  -0.00000

 Dipole moment (field-independent basis, Debye):
    X=             -1.6053    Y=             -0.0000    Z=              0.0000  Tot=              1.6053
 Quadrupole moment (field-independent basis, Debye-Ang):
   XX=            -19.4914   YY=            -21.4504   ZZ=            -22.0193
   XY=              0.0000   XZ=              0.0002   YZ=              0.0000

 Normal termination of Gaussian 16 at Thu Jul 10 14:45:23 2025.
