 Gaussian 16, Revision C.01,
 Gaussian 16:  ES64L-G16RevC.01  3-Jul-2019

 ---------------
 #P M052X/6-31G*
 ---------------

 ---------------------------
 H2F2_iso1_oct_vaccum_M05-2x
 ---------------------------
 Symbolic Z-matrix:
 Charge =  0 Multiplicity = 1

                         Standard orientation:
 ---------------------------------------------------------------------
 Center     Atomic      Atomic             Coordinates (Angstroms)
 Number     Number       Type             X           Y           Z
 ---------------------------------------------------------------------
      1          6           0        1.385546   -0.000000    0.000024
      2          6           0        0.070175   -0.000000    0.000048
      3          1           0        1.924713    0.937081   -0.000024
      4          1           0        1.924712   -0.937081    0.000011
      5          9           0       -0.699097   -1.082885   -0.000004
      6          9           0       -0.699097    1.082885   -0.000043
 ---------------------------------------------------------------------

 SCF Done:  E(RM052X) =  -277.028330210     A.U. after   13 cycles

 The electronic state is 1-A.
 Alpha  occ. eigenvalues --  -25.34099 -25.34098 -10.75665 -10.58343  -1.42213
 Alpha  occ. eigenvalues --   -1.35656  -0.89542  -0.73728  -0.66846  -0.62010
 Alpha  occ. eigenvalues --   -0.61457  -0.54026  -0.52890  -0.51707  -0.49456
 Alpha  occ. eigenvalues --   -0.32899
 Alpha virt. eigenvalues --    0.07710   0.17064   0.18422   0.22819   0.32893
 Alpha virt. eigenvalues --    0.36979   0.56144   0.57851   0.60356   0.65079
 Alpha virt. eigenvalues --    0.68135   0.71502   0.89957   0.99893   1.00761

 Mulliken charges:
               1
     1  C   -0.510152
     2  C    0.609751
     3  H    0.205463
     4  H    0.205463
     5  F   -0.255262
     6  F   -0.255262
 Sum of Mulliken charges =  -0.00000

 Dipole moment (field-independent basis, Debye):
    X=              1.2550    Y=             -0.0000    Z=              0.0000  Tot=              1.2550
 Quadrupole moment (field-independent basis, Debye-Ang):
   XX=            -19.9863   YY=            -21.4748   ZZ=            -22.0160
   XY=              0.0000   XZ=             -0.0002   YZ=             -0.0000

 Normal termination of Gaussian 16 at Thu Jul 10 14:19:04 2025.
