 Gaussian 16, Revision C.01,
 Gaussian 16:  ES64L-G16RevC.01  3-Jul-2019

 -------------------------------------------
 #P M052X/6-31G* scrf(SMD,solvent=n-octanol)
 -------------------------------------------

 ---------------
 H1F3_oct_M05-2x
 ---------------
 Symbolic Z-matrix:
 Charge =  0 Multiplicity = 1

                         Standard orientation:
 ---------------------------------------------------------------------
 Center     Atomic      Atomic             Coordinates (Angstroms)
 Number     Number       Type             X           Y           Z
 ---------------------------------------------------------------------
      1          6           0        0.745098   -0.647513    0.000011
      2          6           0       -0.428468   -0.042632    0.000021
      3          1           0        0.872123   -1.719777    0.000013
      4          9           0        1.882491    0.079157   -0.000032
      5          9           0       -0.609423    1.267461   -0.000013
      6          9           0       -1.581057   -0.695435    0.000022
 ---------------------------------------------------------------------

 SCF Done:  E(RM052X) =  -376.237200870     A.U. after   12 cycles

 The electronic state is 1-A.
 Alpha  occ. eigenvalues --  -25.34951 -25.34938 -25.32124 -10.75508 -10.66626
 Alpha  occ. eigenvalues --   -1.42967  -1.36894  -1.35944  -0.89807  -0.74471
 Alpha  occ. eigenvalues --   -0.68168  -0.66370  -0.63079  -0.59583  -0.55845
 Alpha  occ. eigenvalues --   -0.55212  -0.54905  -0.52701  -0.47535  -0.31596
 Alpha virt. eigenvalues --    0.08361   0.13348   0.20203   0.22716   0.39159
 Alpha virt. eigenvalues --    0.43170   0.56147   0.56560   0.61235   0.62149
 Alpha virt. eigenvalues --    0.66304   0.67203   0.85820   0.96383   1.05155

 Mulliken charges:
               1
     1  C    0.014515
     2  C    0.538159
     3  H    0.246675
     4  F   -0.291299
     5  F   -0.252498
     6  F   -0.255552
 Sum of Mulliken charges =  -0.00000

 Dipole moment (field-independent basis, Debye):
    X=             -0.0322    Y=             -1.6462    Z=              0.0000  Tot=              1.6465
 Quadrupole moment (field-independent basis, Debye-Ang):
   XX=            -28.4776   YY=            -23.7460   ZZ=            -25.2998
   XY=             -1.6917   XZ=              0.0000   YZ=              0.0000

 Normal termination of Gaussian 16 at Thu Jul 10 14:15:34 2025.
