 Gaussian 16, Revision C.01,
 Gaussian 16:  ES64L-G16RevC.01  3-Jul-2019

 -------------------------------------------
 #P M052X/6-31G* scrf(SMD,solvent=n-octanol)
 -------------------------------------------

 ---------------
 H1F3_wat_M05-2x
 ---------------
 Symbolic Z-matrix:
 Charge =  0 Multiplicity = 1

                         Standard orientation:
 ---------------------------------------------------------------------
 Center     Atomic      Atomic             Coordinates (Angstroms)
 Number     Number       Type             X           Y           Z
 ---------------------------------------------------------------------
      1          6           0        0.743807   -0.651108   -0.000012
      2          6           0       -0.428463   -0.044090   -0.000012
      3          1           0        0.872538   -1.722585    0.000016
      4          9           0        1.880413    0.078815   -0.000016
      5          9           0       -0.604086    1.267327   -0.000010
      6          9           0       -1.583505   -0.691279    0.000040
 ---------------------------------------------------------------------

 SCF Done:  E(RM052X) =  -376.237215017     A.U. after   12 cycles

 The electronic state is 1-A.
 Alpha  occ. eigenvalues --  -25.34977 -25.34916 -25.32096 -10.75514 -10.66622
 Alpha  occ. eigenvalues --   -1.42972  -1.36892  -1.35889  -0.89813  -0.74470
 Alpha  occ. eigenvalues --   -0.68172  -0.66351  -0.63082  -0.59558  -0.55812
 Alpha  occ. eigenvalues --   -0.55205  -0.54900  -0.52697  -0.47554  -0.31606
 Alpha virt. eigenvalues --    0.08352   0.13324   0.20204   0.22718   0.39118
 Alpha virt. eigenvalues --    0.43179   0.56137   0.56561   0.61275   0.62144
 Alpha virt. eigenvalues --    0.66272   0.67198   0.85841   0.96420   1.05149

 Mulliken charges:
               1
     1  C    0.014701
     2  C    0.538179
     3  H    0.247180
     4  F   -0.292143
     5  F   -0.253006
     6  F   -0.254911
 Sum of Mulliken charges =  -0.00000

 Dipole moment (field-independent basis, Debye):
    X=             -0.0409    Y=             -1.6634    Z=             -0.0000  Tot=              1.6639
 Quadrupole moment (field-independent basis, Debye-Ang):
   XX=            -28.4772   YY=            -23.7284   ZZ=            -25.2991
   XY=             -1.6942   XZ=              0.0001   YZ=             -0.0000

 Normal termination of Gaussian 16 at Thu Jul 10 14:46:31 2025.
