 Gaussian 16, Revision C.01,
 Gaussian 16:  ES64L-G16RevC.01  3-Jul-2019

 ---------------
 #P M052X/6-31G*
 ---------------

 --------------------------
 H1F3_oct_vaccum_M05-2x.gjf
 --------------------------
 Symbolic Z-matrix:
 Charge =  0 Multiplicity = 1

                         Standard orientation:
 ---------------------------------------------------------------------
 Center     Atomic      Atomic             Coordinates (Angstroms)
 Number     Number       Type             X           Y           Z
 ---------------------------------------------------------------------
      1          6           0        0.745098   -0.647513    0.000011
      2          6           0       -0.428468   -0.042632    0.000021
      3          1           0        0.872123   -1.719777    0.000013
      4          9           0        1.882491    0.079157   -0.000032
      5          9           0       -0.609423    1.267461   -0.000013
      6          9           0       -1.581057   -0.695435    0.000022
 ---------------------------------------------------------------------

 SCF Done:  E(RM052X) =  -376.237162246     A.U. after   13 cycles

 The electronic state is 1-A.
 Alpha  occ. eigenvalues --  -25.35532 -25.35295 -25.32395 -10.76281 -10.67646
 Alpha  occ. eigenvalues --   -1.43440  -1.37316  -1.36218  -0.90609  -0.74973
 Alpha  occ. eigenvalues --   -0.68673  -0.66892  -0.63588  -0.60244  -0.56081
 Alpha  occ. eigenvalues --   -0.55611  -0.55264  -0.53080  -0.48219  -0.32336
 Alpha virt. eigenvalues --    0.07498   0.12479   0.18176   0.21604   0.38192
 Alpha virt. eigenvalues --    0.42235   0.55528   0.55623   0.60598   0.61337
 Alpha virt. eigenvalues --    0.65509   0.66214   0.84844   0.94783   1.04182

 Mulliken charges:
               1
     1  C    0.024463
     2  C    0.538792
     3  H    0.205933
     4  F   -0.276562
     5  F   -0.242293
     6  F   -0.250333
 Sum of Mulliken charges =  -0.00000

 Dipole moment (field-independent basis, Debye):
    X=             -0.0726    Y=             -1.3462    Z=              0.0000  Tot=              1.3482
 Quadrupole moment (field-independent basis, Debye-Ang):
   XX=            -28.2008   YY=            -24.0421   ZZ=            -25.3246
   XY=             -1.4844   XZ=              0.0000   YZ=              0.0000

 Normal termination of Gaussian 16 at Thu Jul 10 14:15:34 2025.
