 Gaussian 16, Revision C.01,
 Gaussian 16:  ES64L-G16RevC.01  3-Jul-2019

 ---------------
 #P M052X/6-31G*
 ---------------

 -----------------------
 Cl1F3_oct_vaccum_M05-2x
 -----------------------
 Symbolic Z-matrix:
 Charge =  0 Multiplicity = 1

                         Standard orientation:
 ---------------------------------------------------------------------
 Center     Atomic      Atomic             Coordinates (Angstroms)
 Number     Number       Type             X           Y           Z
 ---------------------------------------------------------------------
      1          6           0        0.248307    0.398793    0.000102
      2          6           0       -0.936388   -0.192806    0.000162
      3         17           0        1.746416   -0.444626   -0.000123
      4          9           0        0.343760    1.731341    0.000109
      5          9           0       -2.075993    0.469523   -0.000212
      6          9           0       -1.107832   -1.498340    0.000159
 ---------------------------------------------------------------------

 SCF Done:  E(RM052X) =  -835.805346103     A.U. after   13 cycles

 The electronic state is 1-A.
 Alpha  occ. eigenvalues -- -102.80715 -25.36938 -25.36687 -25.35188 -10.77986
 Alpha  occ. eigenvalues --  -10.74075  -9.85258  -7.57900  -7.57225  -7.57205
 Alpha  occ. eigenvalues --   -1.45035  -1.39864  -1.38585  -1.01398  -0.89576
 Alpha  occ. eigenvalues --   -0.75478  -0.70103  -0.68664  -0.65398  -0.60634
 Alpha  occ. eigenvalues --   -0.59164  -0.57429  -0.56636  -0.54565  -0.50401
 Alpha  occ. eigenvalues --   -0.44671  -0.42113  -0.32121
 Alpha virt. eigenvalues --    0.05853   0.06141   0.12867   0.19826   0.30414
 Alpha virt. eigenvalues --    0.40165   0.41634   0.47221   0.47712   0.51582
 Alpha virt. eigenvalues --    0.54379   0.56109   0.59346   0.63132   0.64925

 Mulliken charges:
               1
     1  C    0.084739
     2  C    0.552874
     3  Cl   0.072325
     4  F   -0.246595
     5  F   -0.233416
     6  F   -0.229926
 Sum of Mulliken charges =  -0.00000

 Dipole moment (field-independent basis, Debye):
    X=              0.0055    Y=             -0.3590    Z=              0.0002  Tot=              0.3590
 Quadrupole moment (field-independent basis, Debye-Ang):
   XX=            -37.7259   YY=            -39.2048   ZZ=            -36.9053
   XY=             -0.5827   XZ=             -0.0006   YZ=              0.0001

 Normal termination of Gaussian 16 at Thu Jul 10 13:50:57 2025.
