 Gaussian 16, Revision C.01,
 Gaussian 16:  ES64L-G16RevC.01  3-Jul-2019

 -------------------------------------------
 #P M052X/6-31G* scrf(SMD,solvent=n-octanol)
 -------------------------------------------

 ----------------
 Cl1F3_oct_M05-2x
 ----------------
 Symbolic Z-matrix:
 Charge =  0 Multiplicity = 1

                         Standard orientation:
 ---------------------------------------------------------------------
 Center     Atomic      Atomic             Coordinates (Angstroms)
 Number     Number       Type             X           Y           Z
 ---------------------------------------------------------------------
      1          6           0        0.248307    0.398793    0.000102
      2          6           0       -0.936388   -0.192806    0.000162
      3         17           0        1.746416   -0.444626   -0.000123
      4          9           0        0.343760    1.731341    0.000109
      5          9           0       -2.075993    0.469523   -0.000212
      6          9           0       -1.107832   -1.498340    0.000159
 ---------------------------------------------------------------------

 SCF Done:  E(RM052X) =  -835.804611400     A.U. after   12 cycles

 The electronic state is 1-A.
 Alpha  occ. eigenvalues -- -102.80410 -25.36486 -25.36251 -25.34935 -10.77529
 Alpha  occ. eigenvalues --  -10.73550  -9.84950  -7.57590  -7.56922  -7.56898
 Alpha  occ. eigenvalues --   -1.44564  -1.39587  -1.38157  -1.01022  -0.89106
 Alpha  occ. eigenvalues --   -0.75105  -0.69749  -0.68341  -0.64866  -0.60353
 Alpha  occ. eigenvalues --   -0.58876  -0.57041  -0.56180  -0.54168  -0.50105
 Alpha  occ. eigenvalues --   -0.44350  -0.41853  -0.31599
 Alpha virt. eigenvalues --    0.06463   0.06567   0.13301   0.20482   0.30798
 Alpha virt. eigenvalues --    0.40601   0.41943   0.47560   0.47933   0.52029
 Alpha virt. eigenvalues --    0.54960   0.56914   0.59924   0.63707   0.65642

 Mulliken charges:
               1
     1  C    0.087837
     2  C    0.572420
     3  Cl   0.065498
     4  F   -0.253787
     5  F   -0.237991
     6  F   -0.233977
 Sum of Mulliken charges =  -0.00000

 Dipole moment (field-independent basis, Debye):
    X=             -0.0673    Y=             -0.4077    Z=              0.0002  Tot=              0.4132
 Quadrupole moment (field-independent basis, Debye-Ang):
   XX=            -37.8727   YY=            -39.3799   ZZ=            -36.8760
   XY=             -0.5889   XZ=             -0.0006   YZ=              0.0001

 Normal termination of Gaussian 16 at Thu Jul 10 13:51:05 2025.
