 Gaussian 16, Revision C.01,
 Gaussian 16:  ES64L-G16RevC.01  3-Jul-2019

 ---------------------------------------
 #P M052X/6-31G* scrf(SMD,solvent=water)
 ---------------------------------------

 ----------------
 Cl1F3_wat_M05-2x
 ----------------
 Symbolic Z-matrix:
 Charge =  0 Multiplicity = 1

                         Standard orientation:
 ---------------------------------------------------------------------
 Center     Atomic      Atomic             Coordinates (Angstroms)
 Number     Number       Type             X           Y           Z
 ---------------------------------------------------------------------
      1          6           0        0.248181    0.399281    0.000149
      2          6           0       -0.936015   -0.192698    0.000093
      3         17           0        1.745502   -0.444429   -0.000280
      4          9           0        0.343508    1.731550    0.000327
      5          9           0       -2.076130    0.468571   -0.000385
      6          9           0       -1.105880   -1.498366    0.000427
 ---------------------------------------------------------------------

 SCF Done:  E(RM052X) =  -835.799913422     A.U. after   12 cycles

 The electronic state is 1-A.
 Alpha  occ. eigenvalues -- -102.80365 -25.36409 -25.36183 -25.34899 -10.77443
 Alpha  occ. eigenvalues --  -10.73452  -9.84906  -7.57545  -7.56879  -7.56854
 Alpha  occ. eigenvalues --   -1.44490  -1.39557  -1.38093  -1.00981  -0.89031
 Alpha  occ. eigenvalues --   -0.75048  -0.69702  -0.68297  -0.64782  -0.60320
 Alpha  occ. eigenvalues --   -0.58838  -0.56981  -0.56109  -0.54110  -0.50063
 Alpha  occ. eigenvalues --   -0.44308  -0.41822  -0.31509
 Alpha virt. eigenvalues --    0.06578   0.06656   0.13390   0.20599   0.30859
 Alpha virt. eigenvalues --    0.40683   0.41987   0.47606   0.47959   0.52120
 Alpha virt. eigenvalues --    0.55063   0.57056   0.60022   0.63821   0.65770

 Mulliken charges:
               1
     1  C    0.088571
     2  C    0.576019
     3  Cl   0.063977
     4  F   -0.254927
     5  F   -0.238831
     6  F   -0.234809
 Sum of Mulliken charges =  -0.00000

 Dipole moment (field-independent basis, Debye):
    X=             -0.0823    Y=             -0.4126    Z=             -0.0001  Tot=              0.4208
 Quadrupole moment (field-independent basis, Debye-Ang):
   XX=            -37.9044   YY=            -39.4098   ZZ=            -36.8683
   XY=             -0.5887   XZ=             -0.0007   YZ=              0.0003

 Normal termination of Gaussian 16 at Thu Jul 10 14:45:22 2025.
