 Gaussian 09, Revision D.01,
 Gaussian 09:  ES64L-G09RevD.01 24-Apr-2013

 -------------------------------------------------------------------
 #p opt freq b3lyp/gen nosymm em=gd3 int=ultrafine scf=xqc scfcyc=96
 -------------------------------------------------------------------

 -----------------
 tetrachloroethene
 -----------------
 Symbolic Z-matrix:
 Charge =  0 Multiplicity = 1

 SCF Done:  E(RB3LYP) =  -1556.03693753     A.U. after   17 cycles
 SCF Done:  E(RB3LYP) =  -1556.27621892     A.U. after   15 cycles
 SCF Done:  E(RB3LYP) =  -1556.50673194     A.U. after   15 cycles
 SCF Done:  E(RB3LYP) =  -1556.57758766     A.U. after   15 cycles
 SCF Done:  E(RB3LYP) =  -1556.65493560     A.U. after   13 cycles
 SCF Done:  E(RB3LYP) =  -1556.69593235     A.U. after   14 cycles
 SCF Done:  E(RB3LYP) =  -1556.73589684     A.U. after   12 cycles
 SCF Done:  E(RB3LYP) =  -1556.74116496     A.U. after   13 cycles
 SCF Done:  E(RB3LYP) =  -1556.74513531     A.U. after   12 cycles
 SCF Done:  E(RB3LYP) =  -1556.74430972     A.U. after   11 cycles
 SCF Done:  E(RB3LYP) =  -1556.74439266     A.U. after   12 cycles
 SCF Done:  E(RB3LYP) =  -1556.74670355     A.U. after    9 cycles
 SCF Done:  E(RB3LYP) =  -1556.74549795     A.U. after   11 cycles
 SCF Done:  E(RB3LYP) =  -1556.74688505     A.U. after    9 cycles
 SCF Done:  E(RB3LYP) =  -1556.74633080     A.U. after   12 cycles
 SCF Done:  E(RB3LYP) =  -1556.74708252     A.U. after    9 cycles
 SCF Done:  E(RB3LYP) =  -1556.74712415     A.U. after    9 cycles
 SCF Done:  E(RB3LYP) =  -1556.74712623     A.U. after    8 cycles
 SCF Done:  E(RB3LYP) =  -1556.74712662     A.U. after    8 cycles
 Optimization completed.
    -- Stationary point found.
 Normal termination of Gaussian 09 at Wed Jun 12 23:26:44 2024.

 ------------------------------------------------------------------
 #P Geom=AllCheck Guess=TCheck SCRF=Check GenChk RB3LYP/ChkBas Freq
 ------------------------------------------------------------------

 Structure from the checkpoint file:  "tetrachloroethene.chk"
 -----------------
 tetrachloroethene
 -----------------
 Charge =  0 Multiplicity = 1

                          Input orientation:
 ---------------------------------------------------------------------
 Center     Atomic      Atomic             Coordinates (Angstroms)
 Number     Number       Type             X           Y           Z
 ---------------------------------------------------------------------
      1          6           0       49.832676   35.703124   32.602296
      2          6           0       50.650444   36.376117   31.792073
      3         17           0       49.640826   36.088965   34.273638
      4         17           0       48.899128   34.374762   32.002207
      5          9           0       50.766812   36.043191   30.509122
      6         17           0       51.636115   37.708841   32.235663
 ---------------------------------------------------------------------

 SCF Done:  E(RB3LYP) =  -1556.74712662     A.U. after    1 cycles

 Alpha  occ. eigenvalues -- -101.59864-101.59287-101.59090 -24.74017 -10.34632
 Alpha  occ. eigenvalues --  -10.31264  -9.51268  -9.50663  -9.50461  -7.27773
 Alpha  occ. eigenvalues --   -7.27188  -7.26986  -7.26735  -7.26698  -7.26115
 Alpha  occ. eigenvalues --   -7.26092  -7.25917  -7.25889  -1.28445  -0.95256
 Alpha  occ. eigenvalues --   -0.90471  -0.86344  -0.76332  -0.62910  -0.55547
 Alpha  occ. eigenvalues --   -0.54615  -0.52517  -0.47360  -0.44186  -0.42746
 Alpha  occ. eigenvalues --   -0.37928  -0.37159  -0.36380  -0.35315  -0.33304
 Alpha  occ. eigenvalues --   -0.26823
 Alpha virt. eigenvalues --   -0.03829  -0.03529  -0.02676  -0.00601   0.01986
 Alpha virt. eigenvalues --    0.03449   0.04911   0.05048   0.05988   0.07137
 Alpha virt. eigenvalues --    0.08107   0.08369   0.08584   0.10743   0.11523

 Mulliken charges:
               1
     1  C    0.250754
     2  C   -0.511585
     3  Cl   0.149964
     4  Cl   0.131320
     5  F   -0.204210
     6  Cl   0.183758
 Sum of Mulliken charges =   0.00000

 Dipole moment (field-independent basis, Debye):
    X=              0.1360    Y=              0.3203    Z=              0.4329  Tot=              0.5554
 Quadrupole moment (field-independent basis, Debye-Ang):
   XX=            -39.5337   YY=            -29.3015   ZZ=            -26.2804
   XY=             22.1045   XZ=             26.7349   YZ=             26.5579

  Exact polarizability:  61.155  22.299  67.967  -5.896   2.619  66.734
 Approx polarizability:  95.101  32.499 104.846  -9.608   4.173 107.165

                      1                      2                      3
                      A                      A                      A
 Frequencies --    118.8397               175.4370               254.3648
 Red. masses --     25.1211                29.2269                28.3627
 Frc consts  --      0.2090                 0.5300                 1.0812
 IR Inten    --      0.1230                 1.1043                 0.3860

                      4                      5                      6
                      A                      A                      A
 Frequencies --    316.6399               361.4027               403.1570
 Red. masses --     13.2591                25.8532                25.1651
 Frc consts  --      0.7832                 1.9895                 2.4099
 IR Inten    --      0.0120                 0.2842                 1.0507

                      7                      8                      9
                      A                      A                      A
 Frequencies --    514.7042               573.3379               829.4102
 Red. masses --     22.9478                12.2889                14.1678
 Frc consts  --      3.5818                 2.3800                 5.7424
 IR Inten    --      0.0434                 0.8285               140.6058

                     10                     11                     12
                      A                      A                      A
 Frequencies --    951.6666              1157.4485              1679.9772
 Red. masses --     13.0845                13.3886                12.0873
 Frc consts  --      6.9820                10.5679                20.0995
 IR Inten    --    120.7398               123.5862                37.9815

 - Thermochemistry -
 -------------------
 Temperature   298.150 Kelvin.  Pressure   1.00000 Atm.
 Atom     1 has atomic number  6 and mass  12.00000

 Molecular mass:   147.90496 amu.
 Principal axes and moments of inertia in atomic units:
                           1         2         3
     Eigenvalues --   746.219271222.786231969.00550
           X            0.66543  -0.05819   0.74419
           Y            0.72596   0.28248  -0.62704
           Z           -0.17374   0.95751   0.23022
 This molecule is an asymmetric top.
 Rotational symmetry number  1.
 Warning -- assumption of classical behavior for rotation
           may cause significant error
 Rotational temperatures (Kelvin)      0.11607     0.07083     0.04399
 Rotational constants (GHZ):           2.41851     1.47593     0.91657
 Zero-point vibrational energy      43881.3 (Joules/Mol)
                                   10.48789 (Kcal/Mol)
 Warning -- explicit consideration of   8 degrees of freedom as
           vibrations may cause significant error
 Vibrational temperatures:    170.98   252.41   365.97   455.57   519.98
          (Kelvin)            580.05   740.54   824.90  1193.33  1369.23
                             1665.31  2417.11

 Zero-point correction=                           0.016714 (Hartree/Particle)
 Thermal correction to Energy=                    0.022906
 Thermal correction to Enthalpy=                  0.023851
 Thermal correction to Gibbs Free Energy=        -0.015074
 Sum of electronic and zero-point Energies=          -1556.730413
 Sum of electronic and thermal Energies=             -1556.724220
 Sum of electronic and thermal Enthalpies=           -1556.723276
 Sum of electronic and thermal Free Energies=        -1556.762201

                     E (Thermal)             CV                S
                      KCal/Mol        Cal/Mol-Kelvin    Cal/Mol-Kelvin
 Total                   14.374             19.797             81.924
 Electronic               0.000              0.000              0.000
 Translational            0.889              2.981             40.885
 Rotational               0.889              2.981             28.976
 Vibrational             12.596             13.835             12.064
 Vibration     1          0.609              1.934              3.119
 Vibration     2          0.627              1.873              2.376
 Vibration     3          0.665              1.755              1.700
 Vibration     4          0.704              1.642              1.327
 Vibration     5          0.736              1.552              1.116
 Vibration     6          0.769              1.463              0.951
 Vibration     7          0.870              1.217              0.622
 Vibration     8          0.930              1.089              0.498

 Optimization completed.
    -- Stationary point found.
 Normal termination of Gaussian 09 at Wed Jun 12 23:27:00 2024.
