 Gaussian 09, Revision D.01,
 Gaussian 09:  ES64L-G09RevD.01 24-Apr-2013

 -------------------------------------------------------------------
 #p opt freq b3lyp/gen nosymm em=gd3 int=ultrafine scf=xqc scfcyc=96
 -------------------------------------------------------------------

 -----------------
 tetrachloroethene
 -----------------
 Symbolic Z-matrix:
 Charge =  0 Multiplicity = 1

 SCF Done:  E(RB3LYP) =  -1916.38828476     A.U. after   16 cycles
 SCF Done:  E(RB3LYP) =  -1916.64419295     A.U. after   14 cycles
 SCF Done:  E(RB3LYP) =  -1916.89912290     A.U. after   14 cycles
 SCF Done:  E(RB3LYP) =  -1916.95643226     A.U. after   14 cycles
 SCF Done:  E(RB3LYP) =  -1917.03511401     A.U. after   13 cycles
 SCF Done:  E(RB3LYP) =  -1917.07054801     A.U. after   14 cycles
 SCF Done:  E(RB3LYP) =  -1917.09361494     A.U. after   14 cycles
 SCF Done:  E(RB3LYP) =  -1917.09710069     A.U. after   13 cycles
 SCF Done:  E(RB3LYP) =  -1917.09571097     A.U. after   14 cycles
 SCF Done:  E(RB3LYP) =  -1917.09953562     A.U. after   10 cycles
 SCF Done:  E(RB3LYP) =  -1917.09797812     A.U. after   12 cycles
 SCF Done:  E(RB3LYP) =  -1917.10040929     A.U. after   10 cycles
 SCF Done:  E(RB3LYP) =  -1917.10121378     A.U. after   11 cycles
 SCF Done:  E(RB3LYP) =  -1917.10093769     A.U. after   11 cycles
 SCF Done:  E(RB3LYP) =  -1917.10128485     A.U. after    9 cycles
 SCF Done:  E(RB3LYP) =  -1917.10132507     A.U. after   10 cycles
 SCF Done:  E(RB3LYP) =  -1917.10132680     A.U. after   10 cycles
 Optimization completed.
    -- Stationary point found.
 Normal termination of Gaussian 09 at Wed Jun 12 23:13:56 2024.

 ------------------------------------------------------------------
 #P Geom=AllCheck Guess=TCheck SCRF=Check GenChk RB3LYP/ChkBas Freq
 ------------------------------------------------------------------

 Structure from the checkpoint file:  "tetrachloroethene.chk"
 -----------------
 tetrachloroethene
 -----------------
 Charge =  0 Multiplicity = 1

                          Input orientation:
 ---------------------------------------------------------------------
 Center     Atomic      Atomic             Coordinates (Angstroms)
 Number     Number       Type             X           Y           Z
 ---------------------------------------------------------------------
      1          6           0       49.822704   35.707078   32.634698
      2          6           0       50.652489   36.391444   31.836719
      3         17           0       49.623059   36.080116   34.311806
      4         17           0       48.867778   34.380564   32.067323
      5         17           0       50.851915   36.019251   30.159682
      6         17           0       51.608055   37.716547   32.404771
 ---------------------------------------------------------------------

 SCF Done:  E(RB3LYP) =  -1917.10132680     A.U. after    1 cycles

 Alpha  occ. eigenvalues -- -101.59180-101.59179-101.59172-101.59171 -10.31766
 Alpha  occ. eigenvalues --  -10.31687  -9.50565  -9.50563  -9.50556  -9.50554
 Alpha  occ. eigenvalues --   -7.27084  -7.27082  -7.27075  -7.27073  -7.26033
 Alpha  occ. eigenvalues --   -7.26030  -7.26024  -7.26022  -7.25983  -7.25981
 Alpha  occ. eigenvalues --   -7.25975  -7.25973  -0.96875  -0.91553  -0.87457
 Alpha  occ. eigenvalues --   -0.85251  -0.74599  -0.57729  -0.52125  -0.51947
 Alpha  occ. eigenvalues --   -0.45904  -0.44896  -0.39214  -0.37410  -0.36251
 Alpha  occ. eigenvalues --   -0.35936  -0.35360  -0.34770  -0.31976  -0.26677
 Alpha virt. eigenvalues --   -0.05086  -0.03851  -0.03232  -0.02717   0.00504
 Alpha virt. eigenvalues --    0.03460   0.03758   0.04001   0.05070   0.06396
 Alpha virt. eigenvalues --    0.07900   0.08025   0.08169   0.10611   0.10816

 Mulliken charges:
               1
     1  C   -0.483511
     2  C   -0.484524
     3  Cl   0.242737
     4  Cl   0.240972
     5  Cl   0.243072
     6  Cl   0.241255
 Sum of Mulliken charges =   0.00000

 Dipole moment (field-independent basis, Debye):
    X=              0.0012    Y=              0.0010    Z=             -0.0007  Tot=              0.0017
 Quadrupole moment (field-independent basis, Debye-Ang):
   XX=            -61.2500   YY=            -60.5614   ZZ=            -59.7287
   XY=              0.9572   XZ=              0.2063   YZ=              1.0992

  Exact polarizability:  69.625  22.451  75.144 -10.018   3.930  90.734
 Approx polarizability: 111.935  34.309 120.962 -14.640   7.077 145.182

                      1                      2                      3
                      A                      A                      A
 Frequencies --     95.8971               177.5886               237.3859
 Red. masses --     34.9689                31.8413                34.9444
 Frc consts  --      0.1895                 0.5917                 1.1602
 IR Inten    --      0.0000                 0.7599                 0.0000

                      4                      5                      6
                      A                      A                      A
 Frequencies --    292.6810               311.5091               342.4307
 Red. masses --     13.2772                28.4791                32.1410
 Frc consts  --      0.6701                 1.6282                 2.2205
 IR Inten    --      0.4128                 0.1450                 0.0000

                      7                      8                      9
                      A                      A                      A
 Frequencies --    441.0260               563.2646               761.0833
 Red. masses --     34.6833                12.2341                14.5348
 Frc consts  --      3.9747                 2.2869                 4.9605
 IR Inten    --      0.0000                 0.0000                72.8033

                     10                     11                     12
                      A                      A                      A
 Frequencies --    869.4726               958.7851              1605.2800
 Red. masses --     13.7915                12.5104                12.0369
 Frc consts  --      6.1429                 6.7759                18.2754
 IR Inten    --    200.9043                 0.0040                 0.0000

 - Thermochemistry -
 -------------------
 Temperature   298.150 Kelvin.  Pressure   1.00000 Atm.
 Atom     1 has atomic number  6 and mass  12.00000

 Molecular mass:   163.87541 amu.
 Principal axes and moments of inertia in atomic units:
                           1         2         3
     Eigenvalues --  1060.797881319.415822380.21339
           X            0.61956   0.25951   0.74082
           Y            0.51111   0.58292  -0.63164
           Z           -0.59575   0.76998   0.22851
 This molecule is an asymmetric top.
 Rotational symmetry number  1.
 Warning -- assumption of classical behavior for rotation
           may cause significant error
 Rotational temperatures (Kelvin)      0.08165     0.06565     0.03639
 Rotational constants (GHZ):           1.70131     1.36783     0.75823
 Zero-point vibrational energy      39814.1 (Joules/Mol)
                                    9.51581 (Kcal/Mol)
 Warning -- explicit consideration of   8 degrees of freedom as
           vibrations may cause significant error
 Vibrational temperatures:    137.97   255.51   341.54   421.10   448.19
          (Kelvin)            492.68   634.54   810.41  1095.03  1250.98
                             1379.48  2309.64

 Zero-point correction=                           0.015164 (Hartree/Particle)
 Thermal correction to Energy=                    0.021696
 Thermal correction to Enthalpy=                  0.022640
 Thermal correction to Gibbs Free Energy=        -0.017443
 Sum of electronic and zero-point Energies=          -1917.086162
 Sum of electronic and thermal Energies=             -1917.079631
 Sum of electronic and thermal Enthalpies=           -1917.078687
 Sum of electronic and thermal Free Energies=        -1917.118770

                     E (Thermal)             CV                S
                      KCal/Mol        Cal/Mol-Kelvin    Cal/Mol-Kelvin
 Total                   13.614             20.725             84.363
 Electronic               0.000              0.000              0.000
 Translational            0.889              2.981             41.190
 Rotational               0.889              2.981             29.589
 Vibrational             11.837             14.763             13.583
 Vibration     1          0.603              1.952              3.536
 Vibration     2          0.628              1.870              2.354
 Vibration     3          0.656              1.783              1.822
 Vibration     4          0.688              1.687              1.458
 Vibration     5          0.700              1.652              1.354
 Vibration     6          0.722              1.591              1.201
 Vibration     7          0.801              1.381              0.823
 Vibration     8          0.919              1.111              0.517

 Optimization completed.
    -- Stationary point found.
 Normal termination of Gaussian 09 at Wed Jun 12 23:14:14 2024.
