 Gaussian 16, Revision C.01,
 Gaussian 16:  ES64L-G16RevC.01  3-Jul-2019

 -------------------------------------------
 #P M052X/6-31G* scrf(SMD,solvent=n-octanol)
 -------------------------------------------

 ---------------------
 Cl2F2_iso2_oct_M05-2x
 ---------------------
 Symbolic Z-matrix:
 Charge =  0 Multiplicity = 1

                         Standard orientation:
 ---------------------------------------------------------------------
 Center     Atomic      Atomic             Coordinates (Angstroms)
 Number     Number       Type             X           Y           Z
 ---------------------------------------------------------------------
      1          6           0        0.228967   -0.000000    0.000029
      2          6           0       -1.098866   -0.000006    0.000034
      3         17           0        1.124762    1.480813   -0.000020
      4         17           0        1.124780   -1.480801    0.000020
      5          9           0       -1.834596   -1.089171    0.000009
      6          9           0       -1.834606    1.089154   -0.000049
 ---------------------------------------------------------------------

 SCF Done:  E(RM052X) =  -1196.15961519     A.U. after   11 cycles

 The electronic state is 1-A.
 Alpha  occ. eigenvalues -- -102.80289-102.80289 -25.36988 -25.36987 -10.78700
 Alpha  occ. eigenvalues --  -10.71006  -9.84756  -9.84754  -7.57410  -7.57408
 Alpha  occ. eigenvalues --   -7.56717  -7.56717  -7.56700  -7.56699  -1.45322
 Alpha  occ. eigenvalues --   -1.38907  -1.04659  -0.95584  -0.87718  -0.74664
 Alpha  occ. eigenvalues --   -0.69611  -0.65071  -0.62943  -0.56672  -0.55686
 Alpha  occ. eigenvalues --   -0.55316  -0.52731  -0.48662  -0.42580  -0.41156
 Alpha  occ. eigenvalues --   -0.39588  -0.31563
 Alpha virt. eigenvalues --    0.04376   0.04692   0.06242   0.20087   0.27518
 Alpha virt. eigenvalues --    0.32966   0.36410   0.41585   0.45163   0.45516
 Alpha virt. eigenvalues --    0.46388   0.51226   0.51562   0.54638   0.55003

 Mulliken charges:
               1
     1  C   -0.391865
     2  C    0.678295
     3  Cl   0.082660
     4  Cl   0.082662
     5  F   -0.225876
     6  F   -0.225876
 Sum of Mulliken charges =  -0.00000

 Dipole moment (field-independent basis, Debye):
    X=             -0.4442    Y=             -0.0000    Z=              0.0001  Tot=              0.4442
 Quadrupole moment (field-independent basis, Debye-Ang):
   XX=            -45.7839   YY=            -45.5429   ZZ=            -45.1832
   XY=             -0.0000   XZ=             -0.0002   YZ=              0.0000

 Normal termination of Gaussian 16 at Thu Jul 10 13:58:08 2025.
