 Gaussian 16, Revision C.01,
 Gaussian 16:  ES64L-G16RevC.01  3-Jul-2019

 ---------------------------------------
 #P M052X/6-31G* scrf(SMD,solvent=water)
 ---------------------------------------

 ---------------------
 Cl2F2_iso2_wat_M05-2x
 ---------------------
 Symbolic Z-matrix:
 Charge =  0 Multiplicity = 1

                         Standard orientation:
 ---------------------------------------------------------------------
 Center     Atomic      Atomic             Coordinates (Angstroms)
 Number     Number       Type             X           Y           Z
 ---------------------------------------------------------------------
      1          6           0        0.228717   -0.000002    0.000029
      2          6           0       -1.098848   -0.000001    0.000033
      3         17           0        1.124598    1.480520   -0.000019
      4         17           0        1.124601   -1.480519    0.000018
      5          9           0       -1.834201   -1.089036    0.000011
      6          9           0       -1.834199    1.089034   -0.000052
 ---------------------------------------------------------------------

 SCF Done:  E(RM052X) =  -1196.15406867     A.U. after   11 cycles

 The electronic state is 1-A.
 Alpha  occ. eigenvalues -- -102.80264-102.80264 -25.36918 -25.36917 -10.78633
 Alpha  occ. eigenvalues --  -10.70916  -9.84731  -9.84729  -7.57384  -7.57382
 Alpha  occ. eigenvalues --   -7.56693  -7.56693  -7.56675  -7.56674  -1.45260
 Alpha  occ. eigenvalues --   -1.38846  -1.04621  -0.95557  -0.87658  -0.74608
 Alpha  occ. eigenvalues --   -0.69561  -0.64991  -0.62901  -0.56599  -0.55636
 Alpha  occ. eigenvalues --   -0.55257  -0.52687  -0.48619  -0.42566  -0.41138
 Alpha  occ. eigenvalues --   -0.39572  -0.31492
 Alpha virt. eigenvalues --    0.04426   0.04802   0.06307   0.20222   0.27598
 Alpha virt. eigenvalues --    0.32979   0.36463   0.41603   0.45183   0.45545
 Alpha virt. eigenvalues --    0.46406   0.51232   0.51610   0.54659   0.55118

 Mulliken charges:
               1
     1  C   -0.391936
     2  C    0.682905
     3  Cl   0.080853
     4  Cl   0.080855
     5  F   -0.226339
     6  F   -0.226338
 Sum of Mulliken charges =  -0.00000

 Dipole moment (field-independent basis, Debye):
    X=             -0.4779    Y=             -0.0000    Z=              0.0001  Tot=              0.4779
 Quadrupole moment (field-independent basis, Debye-Ang):
   XX=            -45.8031   YY=            -45.5878   ZZ=            -45.1804
   XY=             -0.0000   XZ=             -0.0002   YZ=              0.0000

 Normal termination of Gaussian 16 at Thu Jul 10 14:47:22 2025.
