 Gaussian 16, Revision C.01,
 Gaussian 16:  ES64L-G16RevC.01  3-Jul-2019

 ---------------
 #P M052X/6-31G*
 ---------------

 ----------------------------
 Cl2F2_iso2_oct_vaccum_M05-2x
 ----------------------------
 Symbolic Z-matrix:
 Charge =  0 Multiplicity = 1

                         Standard orientation:
 ---------------------------------------------------------------------
 Center     Atomic      Atomic             Coordinates (Angstroms)
 Number     Number       Type             X           Y           Z
 ---------------------------------------------------------------------
      1          6           0        0.228967   -0.000000    0.000029
      2          6           0       -1.098866   -0.000006    0.000034
      3         17           0        1.124762    1.480813   -0.000020
      4         17           0        1.124780   -1.480801    0.000020
      5          9           0       -1.834596   -1.089171    0.000009
      6          9           0       -1.834606    1.089154   -0.000049
 ---------------------------------------------------------------------

 SCF Done:  E(RM052X) =  -1196.15837600     A.U. after   13 cycles

 The electronic state is 1-A.
 Alpha  occ. eigenvalues -- -102.80441-102.80441 -25.37408 -25.37407 -10.79034
 Alpha  occ. eigenvalues --  -10.71451  -9.84911  -9.84909  -7.57567  -7.57565
 Alpha  occ. eigenvalues --   -7.56867  -7.56867  -7.56853  -7.56852  -1.45776
 Alpha  occ. eigenvalues --   -1.39340  -1.04925  -0.95758  -0.88085  -0.75044
 Alpha  occ. eigenvalues --   -0.69989  -0.65600  -0.63226  -0.57132  -0.56031
 Alpha  occ. eigenvalues --   -0.55675  -0.53008  -0.48925  -0.42700  -0.41269
 Alpha  occ. eigenvalues --   -0.39699  -0.31944
 Alpha virt. eigenvalues --    0.04140   0.04161   0.05922   0.19456   0.27156
 Alpha virt. eigenvalues --    0.32864   0.36120   0.41460   0.45022   0.45328
 Alpha virt. eigenvalues --    0.46271   0.51181   0.51344   0.54373   0.54512

 Mulliken charges:
               1
     1  C   -0.390779
     2  C    0.654051
     3  Cl   0.091162
     4  Cl   0.091163
     5  F   -0.222798
     6  F   -0.222798
 Sum of Mulliken charges =  -0.00000

 Dipole moment (field-independent basis, Debye):
    X=             -0.2903    Y=             -0.0000    Z=              0.0000  Tot=              0.2903
 Quadrupole moment (field-independent basis, Debye-Ang):
   XX=            -45.6805   YY=            -45.3349   ZZ=            -45.1860
   XY=             -0.0000   XZ=             -0.0001   YZ=              0.0000

 Normal termination of Gaussian 16 at Thu Jul 10 13:58:07 2025.
