 Gaussian 09, Revision D.01,
 Gaussian 09:  ES64L-G09RevD.01 24-Apr-2013

 -------------------------------------------------------------------
 #p opt freq b3lyp/gen nosymm em=gd3 int=ultrafine scf=xqc scfcyc=96
 -------------------------------------------------------------------

 ----------------------
 difluorodichloroethene
 ----------------------
 Symbolic Z-matrix:
 Charge =  0 Multiplicity = 1

 SCF Done:  E(RB3LYP) =  -1196.33189726     A.U. after   13 cycles
 SCF Done:  E(RB3LYP) =  -1196.36394479     A.U. after   12 cycles
 SCF Done:  E(RB3LYP) =  -1196.37987614     A.U. after   13 cycles
 SCF Done:  E(RB3LYP) =  -1196.39113669     A.U. after   12 cycles
 SCF Done:  E(RB3LYP) =  -1196.39122774     A.U. after    9 cycles
 SCF Done:  E(RB3LYP) =  -1196.39125480     A.U. after    9 cycles
 Optimization completed.
    -- Stationary point found.
 Normal termination of Gaussian 09 at Thu Jun 13 10:46:23 2024.

 ------------------------------------------------------------------
 #P Geom=AllCheck Guess=TCheck SCRF=Check GenChk RB3LYP/ChkBas Freq
 ------------------------------------------------------------------

 Structure from the checkpoint file:  "difluorodichloroethene.chk"
 ----------------------
 difluorodichloroethene
 ----------------------
 Charge =  0 Multiplicity = 1

                          Input orientation:
 ---------------------------------------------------------------------
 Center     Atomic      Atomic             Coordinates (Angstroms)
 Number     Number       Type             X           Y           Z
 ---------------------------------------------------------------------
      1          6           0       49.830463   35.714143   32.640039
      2          6           0       50.645165   36.384497   31.832336
      3          9           0       49.709409   36.042048   33.923806
      4         17           0       48.863504   34.385398   32.146146
      5          9           0       50.765285   36.055834   30.548214
      6         17           0       51.612174   37.713081   32.324458
 ---------------------------------------------------------------------

 SCF Done:  E(RB3LYP) =  -1196.39125480     A.U. after    1 cycles

 Alpha  occ. eigenvalues -- -101.59798-101.59790 -24.73994 -24.73977 -10.34197
 Alpha  occ. eigenvalues --  -10.34110  -9.51193  -9.51183  -7.27700  -7.27691
 Alpha  occ. eigenvalues --   -7.26647  -7.26637  -7.26634  -7.26624  -1.28585
 Alpha  occ. eigenvalues --   -1.28101  -0.92404  -0.90439  -0.77804  -0.64925
 Alpha  occ. eigenvalues --   -0.59969  -0.56599  -0.53727  -0.52000  -0.50273
 Alpha  occ. eigenvalues --   -0.46212  -0.42834  -0.39106  -0.37786  -0.37047
 Alpha  occ. eigenvalues --   -0.35454  -0.27018
 Alpha virt. eigenvalues --   -0.03319  -0.02547  -0.00815   0.02395   0.02565
 Alpha virt. eigenvalues --    0.03447   0.05110   0.06413   0.06819   0.08055
 Alpha virt. eigenvalues --    0.08225   0.08747   0.09564   0.11121   0.11661

 Mulliken charges:
               1
     1  C    0.119830
     2  C    0.119327
     3  F   -0.218067
     4  Cl   0.098280
     5  F   -0.218062
     6  Cl   0.098693
 Sum of Mulliken charges =   0.00000

 Dipole moment (field-independent basis, Debye):
    X=              0.0017    Y=              0.0029    Z=              0.0027  Tot=              0.0043
 Quadrupole moment (field-independent basis, Debye-Ang):
   XX=            -44.8566   YY=            -43.9063   ZZ=            -48.4198
   XY=              1.5696   XZ=              1.2812   YZ=              0.4729

  Exact polarizability:  53.400  22.377  60.629  -2.827   1.090  45.774
 Approx polarizability:  79.872  31.380  89.224  -5.894   1.017  73.431

                      1                      2                      3
                      A                      A                      A
 Frequencies --    131.4487               181.3051               290.2860
 Red. masses --     22.5423                21.7307                24.2581
 Frc consts  --      0.2295                 0.4209                 1.2044
 IR Inten    --      0.3142                 2.1544                 0.0000

                      4                      5                      6
                      A                      A                      A
 Frequencies --    366.8548               421.5943               423.5626
 Red. masses --     13.3818                26.5768                20.7612
 Frc consts  --      1.0611                 2.7832                 2.1945
 IR Inten    --      0.5723                 0.0042                 2.3079

                      7                      8                      9
                      A                      A                      A
 Frequencies --    571.1264               635.7881               863.5639
 Red. masses --     12.2748                18.4506                13.9335
 Frc consts  --      2.3590                 4.3943                 6.1221
 IR Inten    --      0.0000                 0.0002               189.7684

                     10                     11                     12
                      A                      A                      A
 Frequencies --   1167.6531              1197.4891              1748.2176
 Red. masses --     12.9086                13.8499                12.1213
 Frc consts  --     10.3695                11.7014                21.8268
 IR Inten    --      0.0893               311.1691                 0.0007

 - Thermochemistry -
 -------------------
 Temperature   298.150 Kelvin.  Pressure   1.00000 Atm.
 Atom     1 has atomic number  6 and mass  12.00000

 Molecular mass:   131.93451 amu.
 Principal axes and moments of inertia in atomic units:
                           1         2         3
     Eigenvalues --   421.770821205.536131627.30695
           X            0.65435  -0.13419   0.74419
           Y            0.75359   0.19728  -0.62704
           Z           -0.06267   0.97112   0.23022
 This molecule is an asymmetric top.
 Rotational symmetry number  1.
 Rotational temperatures (Kelvin)      0.20536     0.07185     0.05323
 Rotational constants (GHZ):           4.27896     1.49704     1.10904
 Zero-point vibrational energy      47844.0 (Joules/Mol)
                                   11.43499 (Kcal/Mol)
 Warning -- explicit consideration of   7 degrees of freedom as
           vibrations may cause significant error
 Vibrational temperatures:    189.13   260.86   417.66   527.82   606.58
          (Kelvin)            609.41   821.72   914.76  1242.47  1679.99
                             1722.92  2515.29

 Zero-point correction=                           0.018223 (Hartree/Particle)
 Thermal correction to Energy=                    0.024091
 Thermal correction to Enthalpy=                  0.025035
 Thermal correction to Gibbs Free Energy=        -0.012723
 Sum of electronic and zero-point Energies=          -1196.373032
 Sum of electronic and thermal Energies=             -1196.367164
 Sum of electronic and thermal Enthalpies=           -1196.366219
 Sum of electronic and thermal Free Energies=        -1196.403978

                     E (Thermal)             CV                S
                      KCal/Mol        Cal/Mol-Kelvin    Cal/Mol-Kelvin
 Total                   15.117             18.890             79.470
 Electronic               0.000              0.000              0.000
 Translational            0.889              2.981             40.544
 Rotational               0.889              2.981             28.205
 Vibrational             13.340             12.928             10.720
 Vibration     1          0.612              1.922              2.925
 Vibration     2          0.630              1.865              2.315
 Vibration     3          0.686              1.692              1.472
 Vibration     4          0.740              1.540              1.093
 Vibration     5          0.784              1.423              0.887
 Vibration     6          0.786              1.419              0.880
 Vibration     7          0.927              1.094              0.502

 Optimization completed.
    -- Stationary point found.
 Normal termination of Gaussian 09 at Thu Jun 13 10:46:45 2024.
