 Gaussian 16, Revision C.01,
 Gaussian 16:  ES64L-G16RevC.01  3-Jul-2019

 -------------------------------------------
 #P M052X/6-31G* scrf(SMD,solvent=n-octanol)
 -------------------------------------------

 ---------------
 H2F2_oct_M05-2x
 ---------------
 Symbolic Z-matrix:
 Charge =  0 Multiplicity = 1

                         Standard orientation:
 ---------------------------------------------------------------------
 Center     Atomic      Atomic             Coordinates (Angstroms)
 Number     Number       Type             X           Y           Z
 ---------------------------------------------------------------------
      1          6           0       -0.660635    0.587117    0.000015
      2          6           0        0.660635    0.587117    0.000022
      3          1           0       -1.258924    1.488140    0.000015
      4          9           0       -1.378937   -0.556760   -0.000023
      5          9           0        1.378937   -0.556760   -0.000007
      6          1           0        1.258924    1.488140    0.000029
 ---------------------------------------------------------------------

 SCF Done:  E(RM052X) =  -277.011739848     A.U. after    9 cycles

 The electronic state is 1-A.
 Alpha  occ. eigenvalues --  -25.31367 -25.31367 -10.65822 -10.65698  -1.36113
 Alpha  occ. eigenvalues --   -1.34699  -0.88215  -0.71055  -0.63639  -0.62111
 Alpha  occ. eigenvalues --   -0.57014  -0.56029  -0.54068  -0.48681  -0.45092
 Alpha  occ. eigenvalues --   -0.31528
 Alpha virt. eigenvalues --    0.08026   0.13829   0.20617   0.22353   0.34104
 Alpha virt. eigenvalues --    0.46457   0.55177   0.57958   0.59852   0.68122
 Alpha virt. eigenvalues --    0.68621   0.70473   0.89551   0.95146   1.04705

 Mulliken charges:
               1
     1  C    0.067916
     2  C    0.067916
     3  H    0.229977
     4  F   -0.297893
     5  F   -0.297893
     6  H    0.229977
 Sum of Mulliken charges =  -0.00000

 Dipole moment (field-independent basis, Debye):
    X=              0.0000    Y=              2.9819    Z=              0.0000  Tot=              2.9819
 Quadrupole moment (field-independent basis, Debye-Ang):
   XX=            -21.5933   YY=            -18.5655   ZZ=            -21.9620
   XY=              0.0000   XZ=              0.0000   YZ=              0.0000

 Normal termination of Gaussian 16 at Thu Jul 10 14:17:53 2025.
