 Gaussian 16, Revision C.01,
 Gaussian 16:  ES64L-G16RevC.01  3-Jul-2019

 ---------------
 #P M052X/6-31G*
 ---------------

 ----------------------
 H2F2_oct_vaccum_M05-2x
 ----------------------
 Symbolic Z-matrix:
 Charge =  0 Multiplicity = 1

                         Standard orientation:
 ---------------------------------------------------------------------
 Center     Atomic      Atomic             Coordinates (Angstroms)
 Number     Number       Type             X           Y           Z
 ---------------------------------------------------------------------
      1          6           0       -0.660635    0.587117    0.000015
      2          6           0        0.660635    0.587117    0.000022
      3          1           0       -1.258924    1.488140    0.000015
      4          9           0       -1.378937   -0.556760   -0.000023
      5          9           0        1.378937   -0.556760   -0.000007
      6          1           0        1.258924    1.488140    0.000029
 ---------------------------------------------------------------------

 SCF Done:  E(RM052X) =  -277.008791876     A.U. after   12 cycles

 The electronic state is 1-A.
 Alpha  occ. eigenvalues --  -25.31453 -25.31453 -10.66874 -10.66750  -1.36144
 Alpha  occ. eigenvalues --   -1.34713  -0.89115  -0.71615  -0.64424  -0.62281
 Alpha  occ. eigenvalues --   -0.57055  -0.56537  -0.53954  -0.49155  -0.45676
 Alpha  occ. eigenvalues --   -0.32175
 Alpha virt. eigenvalues --    0.07136   0.13001   0.18087   0.19895   0.33181
 Alpha virt. eigenvalues --    0.45311   0.53824   0.57205   0.59489   0.67197
 Alpha virt. eigenvalues --    0.67986   0.69528   0.88397   0.93398   1.03788

 Mulliken charges:
               1
     1  C    0.091346
     2  C    0.091346
     3  H    0.187634
     4  F   -0.278980
     5  F   -0.278980
     6  H    0.187634
 Sum of Mulliken charges =  -0.00000

 Dipole moment (field-independent basis, Debye):
    X=              0.0000    Y=              2.4842    Z=              0.0000  Tot=              2.4842
 Quadrupole moment (field-independent basis, Debye-Ang):
   XX=            -21.6191   YY=            -19.0873   ZZ=            -21.9618
   XY=              0.0000   XZ=              0.0000   YZ=              0.0000

 Normal termination of Gaussian 16 at Thu Jul 10 14:17:52 2025.
