 Gaussian 16, Revision C.01,
 Gaussian 16:  ES64L-G16RevC.01  3-Jul-2019

 -------------------------------------------------------------
 #p opt freq b3lyp/6-311g(d) scrf=(smd,solvent=water) em=gd3bj
 -------------------------------------------------------------

 ---------------
 H2F2_wat_M05-2x
 ---------------
 Symbolic Z-matrix:
 Charge =  0 Multiplicity = 1

 SCF Done:  E(RB3LYP) =  -277.130846584     A.U. after    9 cycles
 Optimization completed.
    -- Stationary point found.
 Normal termination of Gaussian 16 at Thu Jul 10 14:46:28 2025.

 ---------------------------------------------------------------------
 #P Geom=AllCheck Guess=TCheck SCRF=Check GenChk RB3LYP/6-311G(d) Freq
 ---------------------------------------------------------------------

 Structure from the checkpoint file:  "H2F2_wat_M05-2x.chk"
 ---------------
 H2F2_wat_M05-2x
 ---------------
 Charge =  0 Multiplicity = 1

                         Standard orientation:
 ---------------------------------------------------------------------
 Center     Atomic      Atomic             Coordinates (Angstroms)
 Number     Number       Type             X           Y           Z
 ---------------------------------------------------------------------
      1          6           0       -0.660595    0.589998    0.000015
      2          6           0        0.660595    0.589998    0.000022
      3          1           0       -1.262362    1.487911    0.000015
      4          9           0       -1.374072   -0.558655   -0.000023
      5          9           0        1.374072   -0.558655   -0.000007
      6          1           0        1.262362    1.487911    0.000029
 ---------------------------------------------------------------------

 SCF Done:  E(RB3LYP) =  -277.130846584     A.U. after    1 cycles

 The electronic state is 1-A.
 Alpha  occ. eigenvalues --  -24.68550 -24.68549 -10.25154 -10.25066  -1.23463
 Alpha  occ. eigenvalues --   -1.22185  -0.77893  -0.62024  -0.55127  -0.54094
 Alpha  occ. eigenvalues --   -0.48092  -0.48032  -0.45108  -0.40588  -0.37721
 Alpha  occ. eigenvalues --   -0.26116
 Alpha virt. eigenvalues --    0.01921   0.05711   0.09192   0.11332   0.21718
 Alpha virt. eigenvalues --    0.32312   0.35744   0.38202   0.39677   0.47225
 Alpha virt. eigenvalues --    0.48023   0.50768   0.60775   0.62872   0.65802

 Mulliken charges:
               1
     1  C   -0.021683
     2  C   -0.021683
     3  H    0.261591
     4  F   -0.239908
     5  F   -0.239908
     6  H    0.261591
 Sum of Mulliken charges =  -0.00000

 Dipole moment (field-independent basis, Debye):
    X=              0.0000    Y=              3.1012    Z=              0.0000  Tot=              3.1012
 Quadrupole moment (field-independent basis, Debye-Ang):
   XX=            -22.0971   YY=            -18.9074   ZZ=            -22.4266
   XY=              0.0000   XZ=              0.0000   YZ=              0.0000

  Exact polarizability:      40.249      -0.000      25.198       0.000       0.000      15.826
 Approx polarizability:      48.357      -0.000      27.967       0.000       0.000      17.121

                      1                      2                      3
                      A                      A                      A
 Frequencies --    232.9077               503.2124               763.7517
 Red. masses --     14.5192                 4.0432                 8.1321
 Frc consts  --      0.4640                 0.6032                 2.7948
 IR Inten    --      3.6065                 0.0000                64.8380

                      4                      5                      6
                      A                      A                      A
 Frequencies --    788.6885               872.5996              1000.4089
 Red. masses --      1.2784                 1.2672                 5.2101
 Frc consts  --      0.4685                 0.5685                 3.0722
 IR Inten    --     72.3817                 0.0000               115.6371

                      7                      8                      9
                      A                      A                      A
 Frequencies --   1089.9511              1268.4268              1380.4824
 Red. masses --      4.4066                 1.1879                 1.3053
 Frc consts  --      3.0844                 1.1261                 1.4656
 IR Inten    --    204.5871                64.5771                27.1189

                     10                     11                     12
                      A                      A                      A
 Frequencies --   1762.7384              3244.0861              3264.5229
 Red. masses --      6.4382                 1.0878                 1.1053
 Frc consts  --     11.7866                 6.7453                 6.9402
 IR Inten    --     51.7194                 6.4919                 2.3315

 - Thermochemistry -
 -------------------
 Temperature   298.150 Kelvin.  Pressure   1.00000 Atm.
 Atom     1 has atomic number  6 and mass  12.00000

 Molecular mass:    64.01246 amu.
 Principal axes and moments of inertia in atomic units:
                           1         2         3
     Eigenvalues --    87.19415 305.06211 392.25626
           X            1.00000  -0.00000  -0.00001
           Y           -0.00000   1.00000  -0.00003
           Z            0.00001   0.00003   1.00000
 This molecule is an asymmetric top.
 Rotational symmetry number  1.
 Rotational temperatures (Kelvin)      0.99335     0.28392     0.22081
 Rotational constants (GHZ):          20.69796     5.91598     4.60092
 Zero-point vibrational energy      96728.7 (Joules/Mol)
                                   23.11872 (Kcal/Mol)
 Warning -- explicit consideration of   2 degrees of freedom as
           vibrations may cause significant error
 Vibrational temperatures:    335.10   724.01  1098.87  1134.75  1255.48
          (Kelvin)           1439.37  1568.20  1824.98  1986.21  2536.19
                             4667.52  4696.92

 Zero-point correction=                           0.036842 (Hartree/Particle)
 Thermal correction to Energy=                    0.040724
 Thermal correction to Enthalpy=                  0.041668
 Thermal correction to Gibbs Free Energy=         0.010509
 Sum of electronic and zero-point Energies=           -277.094005
 Sum of electronic and thermal Energies=              -277.090123
 Sum of electronic and thermal Enthalpies=            -277.089179
 Sum of electronic and thermal Free Energies=         -277.120338

                     E (Thermal)             CV                S
                      KCal/Mol        Cal/Mol-Kelvin    Cal/Mol-Kelvin
 Total                   25.554             11.888             65.579
 Electronic               0.000              0.000              0.000
 Translational            0.889              2.981             38.388
 Rotational               0.889              2.981             23.860
 Vibrational             23.777              5.926              3.331
 Vibration     1          0.654              1.791              1.856
 Vibration     2          0.859              1.243              0.650

                           ! Non-Optimized Parameters !
 Normal termination of Gaussian 16 at Thu Jul 10 14:46:41 2025.
