 Gaussian 16, Revision C.01,
 Gaussian 16:  ES64L-G16RevC.01  3-Jul-2019

 ---------------
 #P M052X/6-31G*
 ---------------

 ---------------------------
 H2F2_iso2_oct_vaccum_M05-2x
 ---------------------------
 Symbolic Z-matrix:
 Charge =  0 Multiplicity = 1

                         Standard orientation:
 ---------------------------------------------------------------------
 Center     Atomic      Atomic             Coordinates (Angstroms)
 Number     Number       Type             X           Y           Z
 ---------------------------------------------------------------------
      1          6           0        0.525803    0.399709    0.000017
      2          6           0       -0.525803   -0.399709    0.000013
      3          1           0        0.503287    1.482057   -0.000006
      4          9           0        1.772691   -0.125792    0.000017
      5          1           0       -0.503287   -1.482057    0.000016
      6          9           0       -1.772691    0.125792   -0.000038
 ---------------------------------------------------------------------

 SCF Done:  E(RM052X) =  -277.009172998     A.U. after   12 cycles

 The electronic state is 1-A.
 Alpha  occ. eigenvalues --  -25.31708 -25.31708 -10.66870 -10.66744  -1.35970
 Alpha  occ. eigenvalues --   -1.35457  -0.88831  -0.72116  -0.64016  -0.62595
 Alpha  occ. eigenvalues --   -0.57140  -0.56499  -0.54509  -0.50013  -0.45522
 Alpha  occ. eigenvalues --   -0.32131
 Alpha virt. eigenvalues --    0.06880   0.13099   0.19030   0.20131   0.32043
 Alpha virt. eigenvalues --    0.41185   0.56639   0.57301   0.63022   0.65659
 Alpha virt. eigenvalues --    0.66895   0.68468   0.92399   0.92723   1.04337

 Mulliken charges:
               1
     1  C    0.089857
     2  C    0.089857
     3  H    0.196223
     4  F   -0.286080
     5  H    0.196223
     6  F   -0.286080
 Sum of Mulliken charges =  -0.00000

 Dipole moment (field-independent basis, Debye):
    X=              0.0000    Y=             -0.0000    Z=              0.0000  Tot=              0.0000
 Quadrupole moment (field-independent basis, Debye-Ang):
   XX=            -25.6185   YY=            -17.9391   ZZ=            -21.9430
   XY=              1.5869   XZ=             -0.0001   YZ=             -0.0000

 Normal termination of Gaussian 16 at Thu Jul 10 14:22:02 2025.
