 Gaussian 16, Revision C.01,
 Gaussian 16:  ES64L-G16RevC.01  3-Jul-2019

 -------------------------------------------
 #P M052X/6-31G* scrf(SMD,solvent=n-octanol)
 -------------------------------------------

 --------------------
 H2F2_iso2_oct_M05-2x
 --------------------
 Symbolic Z-matrix:
 Charge =  0 Multiplicity = 1

                         Standard orientation:
 ---------------------------------------------------------------------
 Center     Atomic      Atomic             Coordinates (Angstroms)
 Number     Number       Type             X           Y           Z
 ---------------------------------------------------------------------
      1          6           0        0.525803    0.399709    0.000017
      2          6           0       -0.525803   -0.399709    0.000013
      3          1           0        0.503287    1.482057   -0.000006
      4          9           0        1.772691   -0.125792    0.000017
      5          1           0       -0.503287   -1.482057    0.000016
      6          9           0       -1.772691    0.125792   -0.000038
 ---------------------------------------------------------------------

 SCF Done:  E(RM052X) =  -277.010941860     A.U. after    9 cycles

 The electronic state is 1-A.
 Alpha  occ. eigenvalues --  -25.31415 -25.31415 -10.65870 -10.65744  -1.35687
 Alpha  occ. eigenvalues --   -1.35190  -0.88032  -0.71354  -0.63383  -0.62086
 Alpha  occ. eigenvalues --   -0.56871  -0.55890  -0.54355  -0.49561  -0.44691
 Alpha  occ. eigenvalues --   -0.31476
 Alpha virt. eigenvalues --    0.07749   0.14025   0.21080   0.22177   0.32936
 Alpha virt. eigenvalues --    0.42218   0.57532   0.58006   0.63669   0.66338
 Alpha virt. eigenvalues --    0.67789   0.69637   0.93678   0.94249   1.05182

 Mulliken charges:
               1
     1  C    0.069961
     2  C    0.069961
     3  H    0.229551
     4  F   -0.299512
     5  H    0.229551
     6  F   -0.299512
 Sum of Mulliken charges =  -0.00000

 Dipole moment (field-independent basis, Debye):
    X=              0.0000    Y=             -0.0000    Z=              0.0000  Tot=              0.0000
 Quadrupole moment (field-independent basis, Debye-Ang):
   XX=            -26.0740   YY=            -17.4915   ZZ=            -21.9522
   XY=              1.7633   XZ=             -0.0001   YZ=             -0.0000

 Normal termination of Gaussian 16 at Thu Jul 10 14:22:04 2025.
