 Gaussian 16, Revision C.01,
 Gaussian 16:  ES64L-G16RevC.01  3-Jul-2019

 -------------------------------------------
 #P M052X/6-31G* scrf(SMD,solvent=n-octanol)
 -------------------------------------------

 --------------------
 H2F2_iso2_wat_M05-2x
 --------------------
 Symbolic Z-matrix:
 Charge =  0 Multiplicity = 1

                         Standard orientation:
 ---------------------------------------------------------------------
 Center     Atomic      Atomic             Coordinates (Angstroms)
 Number     Number       Type             X           Y           Z
 ---------------------------------------------------------------------
      1          6           0        0.525274    0.400479    0.000024
      2          6           0       -0.525274   -0.400479    0.000019
      3          1           0        0.502575    1.482205   -0.000004
      4          9           0        1.772586   -0.125810    0.000012
      5          1           0       -0.502575   -1.482205    0.000018
      6          9           0       -1.772586    0.125810   -0.000042
 ---------------------------------------------------------------------

 SCF Done:  E(RM052X) =  -277.010944670     A.U. after    9 cycles

 The electronic state is 1-A.
 Alpha  occ. eigenvalues --  -25.31399 -25.31399 -10.65873 -10.65747  -1.35652
 Alpha  occ. eigenvalues --   -1.35154  -0.88035  -0.71352  -0.63374  -0.62061
 Alpha  occ. eigenvalues --   -0.56847  -0.55873  -0.54330  -0.49559  -0.44717
 Alpha  occ. eigenvalues --   -0.31483
 Alpha virt. eigenvalues --    0.07729   0.14010   0.21085   0.22174   0.32899
 Alpha virt. eigenvalues --    0.42204   0.57536   0.58011   0.63648   0.66326
 Alpha virt. eigenvalues --    0.67787   0.69602   0.93713   0.94289   1.05227

 Mulliken charges:
               1
     1  C    0.070050
     2  C    0.070050
     3  H    0.229970
     4  F   -0.300019
     5  H    0.229970
     6  F   -0.300019
 Sum of Mulliken charges =  -0.00000

 Dipole moment (field-independent basis, Debye):
    X=              0.0000    Y=             -0.0000    Z=              0.0000  Tot=              0.0000
 Quadrupole moment (field-independent basis, Debye-Ang):
   XX=            -26.0870   YY=            -17.4802   ZZ=            -21.9515
   XY=              1.7667   XZ=             -0.0001   YZ=             -0.0000

 Normal termination of Gaussian 16 at Thu Jul 10 14:45:24 2025.
