 Gaussian 09, Revision D.01,
 Gaussian 09:  ES64L-G09RevD.01 24-Apr-2013

 ----------------------------------------------------------------------
 #p BLYP/gen IOp(3/76=1000001500) IOp(3/77=0720008500) IOp(3/78=0810010
 000) pseudo=read guess=read scf=xqc
 ----------------------------------------------------------------------

 ----------------
 Int1p_Cl4_freq_l
 ----------------
 Symbolic Z-matrix:
 Charge =  1 Multiplicity = 1

                         Standard orientation:
 ---------------------------------------------------------------------
 Center     Atomic      Atomic             Coordinates (Angstroms)
 Number     Number       Type             X           Y           Z
 ---------------------------------------------------------------------
      1          6           0        7.669504   -4.060260    4.145293
      2          6           0        6.683795   -3.022412    4.725806
      3          6           0        5.868476   -2.228232    3.725137
      4          6           0        6.130363   -0.872130    3.485962
      5          6           0        4.784491   -2.820256    3.057087
      6          6           0        5.328520   -0.120768    2.622119
      7          6           0        3.977921   -2.077022    2.194278
      8          6           0        4.245777   -0.722309    1.978705
      9          6           0       -3.619099    7.103594    1.274464
     10          6           0       -2.138047    6.794139    0.998098
     11          8           0       -1.921084    6.534358   -0.412852
     12          6           0       -1.650051    5.556830    1.738262
     13          6           0       -6.675787    2.967608    5.372937
     14          6           0       -5.237166    2.584127    5.767634
     15          6           0       -4.497429    1.970603    4.605086
     16          6           0       -4.758962    0.635627    4.260283
     17          6           0       -3.609022    2.695311    3.807183
     18          6           0       -4.141449    0.028419    3.174729
     19          6           0       -2.967267    2.099608    2.719243
     20          6           0       -3.223901    0.762291    2.419730
     21          8           0       -2.559817    0.093208    1.416827
     22          6           0       -3.800256   -5.499268    4.149777
     23          6           0       -2.657764   -4.482072    4.048425
     24          6           0       -2.928008   -3.356872    3.053160
     25          8           0       -3.953309   -3.332335    2.357887
     26          7           0       -1.958041   -2.424606    2.934144
     27          6           0       -7.766068    1.059856   -2.081368
     28          6           0       -8.091423    2.016555   -0.911642
     29          6           0       -7.255496    3.311569   -0.835927
     30          6           0       -6.040493    3.233965    0.099357
     31          7           0       -4.993713    2.324972   -0.363285
     32          6           0       -3.749435    2.649521   -0.716227
     33          7           0       -3.300408    3.903720   -0.756463
     34          7           0       -2.878076    1.645785   -1.000302
     35          6           0        9.941375    5.858581    0.323185
     36          6           0        8.610033    5.394412    0.940352
     37          6           0        7.759862    4.487916    0.093205
     38          6           0        8.049335    3.948186   -1.134148
     39          6           0        6.455252    3.981635    0.455881
     40          7           0        7.002823    3.141395   -1.561437
     41          6           0        6.012239    3.137966   -0.601775
     42          6           0        5.623573    4.153541    1.576941
     43          6           0        4.780342    2.474990   -0.564318
     44          6           0        4.395861    3.498839    1.620169
     45          6           0        3.980429    2.667233    0.558554
     46         27           0        1.172074   -1.789354   -1.965290
     47          6           0       -1.362006   -2.982806   -2.220543
     48          6           0       -2.854327   -2.494582   -2.197000
     49          6           0       -2.794169   -1.284601   -3.193651
     50          6           0       -1.353600   -0.811716   -3.032713
     51          6           0       -0.866192    0.477610   -3.442884
     52          6           0        0.477435    0.792020   -3.327329
     53          6           0        1.195731    2.114296   -3.734347
     54          6           0        2.594395    1.537593   -4.097446
     55          6           0        2.673065    0.361858   -3.160624
     56          6           0        3.873536   -0.212738   -2.791074
     57          6           0        4.038247   -1.394652   -2.080297
     58          6           0        5.416400   -1.974279   -1.824222
     59          6           0        5.067905   -3.311043   -1.092441
     60          6           0        3.542091   -3.292061   -1.001810
     61          6           0        2.805043   -4.268072   -0.357447
     62          6           0        1.371171   -4.286390   -0.428188
     63          6           0        0.419158   -5.311450    0.228675
     64          6           0       -0.898277   -5.025737   -0.558533
     65          6           0       -0.750557   -3.546128   -0.919286
     66          6           0       -1.040566   -3.938078   -3.389197
     67          7           0       -0.604382   -1.719084   -2.439658
     68          7           0        1.441430   -0.100022   -2.848300
     69          7           0        3.023198   -2.166989   -1.638904
     70          7           0        0.703483   -3.343560   -1.054582
     71          6           0       -3.880470   -3.550245   -2.584022
     72          6           0       -3.181166   -1.995294   -0.756879
     73          6           0       -4.546465   -1.382243   -0.550971
     74          8           0       -4.913573   -0.360012   -1.182623
     75          7           0       -5.355568   -1.979942    0.331535
     76          6           0       -3.205486   -1.567659   -4.653774
     77          6           0       -1.865695    1.432269   -4.079240
     78          6           0        0.629493    2.952474   -4.890592
     79          6           0        1.452883    3.027696   -2.484880
     80          6           0        0.299893    3.858088   -1.964847
     81          8           0       -0.848986    3.394680   -1.835744
     82          7           0        0.564881    5.124447   -1.594472
     83          6           0        2.734631    1.041473   -5.549915
     84          6           0        6.278425   -1.058504   -0.933829
     85          6           0        6.122683   -2.148489   -3.180349
     86          6           0        5.620118   -4.577075   -1.773310
     87          6           0        3.516994   -5.318552    0.475293
     88          6           0        0.277464   -4.973971    1.728609
     89          6           0        0.758250   -6.799649    0.049872
     90          6           0       -2.182366   -5.436558    0.159837
     91         17           0        0.537705    2.399953    3.797548
     92          6           0        0.520273    1.476710    2.334194
     93          6           0        0.744692    0.150695    2.270577
     94         17           0        0.161960    2.392764    0.897023
     95         17           0        0.793238   -0.717317    0.742893
     96          1           0        7.241749   -2.327760    5.364364
     97          1           0        5.988372   -3.550686    5.391302
     98          1           0        6.963201   -0.394819    3.997047
     99          1           0        4.558202   -3.869480    3.235671
    100          1           0        5.541352    0.930567    2.449755
    101          1           0        3.138857   -2.545657    1.691835
    102          1           0        3.625181   -0.144387    1.302039
    103          1           0        8.479315   -3.582372    3.586485
    104          1           0       -1.522544    7.654350    1.297848
    105          1           0       -0.625859    5.307375    1.449676
    106          1           0       -2.287631    4.699741    1.510983
    107          1           0       -1.669376    5.728107    2.818128
    108          1           0       -2.160855    7.328039   -0.910329
    109          1           0       -4.251623    6.472106    0.639828
    110          1           0       -4.700995    3.458992    6.151272
    111          1           0       -5.269803    1.857913    6.588077
    112          1           0       -3.393794    3.733926    4.046332
    113          1           0       -5.462087    0.061735    4.859193
    114          1           0       -2.249155    2.656190    2.130454
    115          1           0       -4.347139   -1.002661    2.911912
    116          1           0       -2.201845    0.725933    0.769905
    117          1           0       -7.078866    2.244783    4.655452
    118          1           0       -2.418768   -4.039819    5.023478
    119          1           0       -1.735885   -4.970598    3.713311
    120          1           0       -2.064876   -1.646705    2.290088
    121          1           0       -1.150241   -2.423808    3.537554
    122          1           0       -4.315556   -5.575482    3.189389
    123          1           0       -9.152531    2.266001   -0.997062
    124          1           0       -7.991907    1.467972    0.036320
    125          1           0       -7.886681    4.121379   -0.450902
    126          1           0       -6.926893    3.620941   -1.835737
    127          1           0       -5.611791    4.229172    0.243387
    128          1           0       -6.352775    2.896880    1.095153
    129          1           0       -5.213917    1.328866   -0.421124
    130          1           0       -2.014699    1.905436   -1.475373
    131          1           0       -3.327018    0.774894   -1.277430
    132          1           0       -3.879802    4.695511   -0.544961
    133          1           0       -2.346185    4.069624   -1.089652
    134          1           0       -6.713037    0.774645   -2.090437
    135          1           0        8.019271    6.278251    1.219969
    136          1           0        8.821859    4.880852    1.889265
    137          1           0        8.927732    4.073641   -1.750627
    138          1           0        5.940130    4.787736    2.400386
    139          1           0        3.749189    3.618796    2.484892
    140          1           0        4.464262    1.811236   -1.361350
    141          1           0        3.026112    2.153383    0.622979
    142          1           0        9.783250    6.508842   -0.542637
    143          1           0       -3.490411   -0.520781   -2.847155
    144          1           0        3.386291    2.270005   -3.901753
    145          1           0        4.772139    0.282944   -3.141325
    146          1           0        5.475601   -3.264056   -0.075052
    147          1           0       -0.822443   -5.608387   -1.482589
    148          1           0       -1.065579   -2.927883   -0.074220
    149          1           0       -1.234835   -3.464281   -4.349845
    150          1           0       -1.620645   -4.862047   -3.335409
    151          1           0        0.022876   -4.184719   -3.357073
    152          1           0       -4.888260   -3.119577   -2.602259
    153          1           0       -3.697034   -3.971732   -3.572563
    154          1           0       -3.895880   -4.373617   -1.867920
    155          1           0       -2.449514   -1.240338   -0.467270
    156          1           0       -3.079769   -2.819057   -0.052110
    157          1           0       -6.245884   -1.537174    0.521000
    158          1           0       -3.092470   -0.664206   -5.256646
    159          1           0       -2.608183   -2.348505   -5.125606
    160          1           0       -1.715915    2.457594   -3.752178
    161          1           0       -1.806832    1.416426   -5.173100
    162          1           0       -2.891457    1.170448   -3.817697
    163          1           0        1.400014    3.651800   -5.234009
    164          1           0       -0.237805    3.544461   -4.597574
    165          1           0        0.341899    2.329982   -5.738936
    166          1           0        2.286851    3.697071   -2.720814
    167          1           0        1.790118    2.405884   -1.647249
    168          1           0       -0.175699    5.676266   -1.161794
    169          1           0        2.704400    1.864728   -6.268884
    170          1           0        1.938249    0.331858   -5.796042
    171          1           0        5.808845   -0.883248    0.033942
    172          1           0        6.447684   -0.085064   -1.406281
    173          1           0        7.256596   -1.521168   -0.760767
    174          1           0        5.526802   -2.733385   -3.885926
    175          1           0        6.309110   -1.173153   -3.638267
    176          1           0        7.094693   -2.636438   -3.062350
    177          1           0        6.706935   -4.514989   -1.876671
    178          1           0        5.403410   -5.474321   -1.195082
    179          1           0        4.501388   -4.973873    0.793656
    180          1           0        2.963189   -5.535737    1.389988
    181          1           0        3.647579   -6.270939   -0.049923
    182          1           0       -0.129661   -3.971075    1.876353
    183          1           0       -0.385790   -5.695530    2.215271
    184          1           0        1.241767   -5.019834    2.239691
    185          1           0       -0.126069   -7.404475    0.274642
    186          1           0        1.554845   -7.141406    0.712944
    187          1           0       -3.038317   -5.426575   -0.517564
    188          1           0       -2.422341   -4.778609    0.994889
    189         17           0        1.056931   -0.792178    3.691914
    190          1           0        5.189814   -4.715198   -2.768764
    191          1           0        1.059129   -7.014523   -0.980521
    192          1           0       -2.104589   -6.456201    0.549870
    193          1           0       -4.256420   -1.866191   -4.705645
    194          1           0        3.690363    0.523328   -5.667160
    195          1           0       -7.991929    1.565493   -3.026485
    196          1           0       -4.540148   -5.206959    4.898757
    197          1           0       -3.415509   -6.488049    4.398988
    198          1           0       -7.339633    2.945857    6.237347
    199          1           0       -6.722537    3.956575    4.907012
    200          1           0       -3.878765    8.146847    1.074493
    201          1           0       -3.871487    6.859722    2.306545
    202          1           0        7.160862   -4.765009    3.479334
    203          1           0        8.086871   -4.615435    4.985517
    204          1           0       10.550418    5.005431    0.005816
    205          1           0       10.501058    6.404790    1.082387
    206          1           0        6.995220    2.603040   -2.411485
    207          1           0        1.499986    5.498636   -1.637642
    208          1           0       -4.968135   -2.631829    1.017127
    209          6           0       -8.680270   -0.139536   -1.957637
    210          8           0       -9.898082   -0.042946   -2.045915
    211          7           0       -8.051442   -1.306418   -1.625818
    212          1           0       -7.052508   -1.363598   -1.764916
    213          6           0       -8.834720   -2.517703   -1.498443
    214          1           0       -8.258390   -3.268045   -0.950786
    215          1           0       -9.750507   -2.290169   -0.950552
    216          1           0       -9.123224   -2.932884   -2.472105
 ---------------------------------------------------------------------

 SCF Done:  E(RB+HF-LYP) =  -6096.55479991     A.U. after   65 cycles
 SCF Done:  E(RB+HF-LYP) =  -6096.55479991     a.u. after    1 cycles

 The electronic state is 1-A.
 Alpha  occ. eigenvalues -- -101.42572-101.42048-101.41928-101.41004 -19.13367
 Alpha  occ. eigenvalues --  -19.13064 -19.09600 -19.09267 -19.07786 -19.04287
 Alpha  occ. eigenvalues --  -14.35584 -14.34710 -14.34271 -14.33764 -14.33076
 Alpha  occ. eigenvalues --  -14.32430 -14.32180 -14.31079 -14.29991 -14.29913
 Alpha  occ. eigenvalues --  -14.29803 -14.29401 -10.33337 -10.30233 -10.29600
 Alpha  occ. eigenvalues --  -10.29541 -10.29005 -10.28331 -10.24824 -10.24643
 Alpha  occ. eigenvalues --  -10.23320 -10.23164 -10.20677 -10.20325 -10.20167
 Alpha  occ. eigenvalues --  -10.19752 -10.19529 -10.19511 -10.19211 -10.19008
 Alpha  occ. eigenvalues --  -10.18981 -10.18967 -10.18723 -10.18571 -10.18295
 Alpha  occ. eigenvalues --  -10.18148 -10.18131 -10.17963 -10.17947 -10.17926
 Alpha  occ. eigenvalues --  -10.17766 -10.17568 -10.17567 -10.17238 -10.17142
 Alpha  occ. eigenvalues --  -10.17131 -10.17092 -10.16913 -10.16909 -10.16896
 Alpha  occ. eigenvalues --  -10.16872 -10.16676 -10.16646 -10.16183 -10.16155
 Alpha  occ. eigenvalues --  -10.16115 -10.15966 -10.15827 -10.15729 -10.15524
 Alpha  occ. eigenvalues --  -10.15445 -10.15427 -10.15356 -10.15282 -10.15229
 Alpha  occ. eigenvalues --  -10.15192 -10.15107 -10.15085 -10.14903 -10.14878
 Alpha  occ. eigenvalues --  -10.14814 -10.14800 -10.14783 -10.14740 -10.14710
 Alpha  occ. eigenvalues --  -10.14662 -10.14594 -10.14553 -10.14482 -10.14468
 Alpha  occ. eigenvalues --  -10.14389 -10.14329 -10.14270 -10.14217 -10.13974
 Alpha  occ. eigenvalues --  -10.13864 -10.13369 -10.13248 -10.13228  -9.49593
 Alpha  occ. eigenvalues --   -9.48981  -9.48875  -9.47874  -7.28029  -7.27449
 Alpha  occ. eigenvalues --   -7.27325  -7.26976  -7.26913  -7.26377  -7.26351
 Alpha  occ. eigenvalues --   -7.26311  -7.26268  -7.26196  -7.25240  -7.25176
 Alpha  occ. eigenvalues --   -3.68969  -2.40779  -2.40528  -2.36962  -1.11957
 Alpha  occ. eigenvalues --   -1.11774  -1.11237  -1.10551  -1.09940  -1.09348
 Alpha  occ. eigenvalues --   -1.07102  -1.01385  -1.00916  -1.00006  -0.99635
 Alpha  occ. eigenvalues --   -0.99361  -0.98976  -0.98506  -0.97969  -0.97685
 Alpha  occ. eigenvalues --   -0.97155  -0.96749  -0.96191  -0.94848  -0.91163
 Alpha  occ. eigenvalues --   -0.91074  -0.88814  -0.88566  -0.87937  -0.87776
 Alpha  occ. eigenvalues --   -0.87556  -0.86590  -0.86401  -0.86165  -0.85258
 Alpha  occ. eigenvalues --   -0.85166  -0.84582  -0.83902  -0.83603  -0.83585
 Alpha  occ. eigenvalues --   -0.82845  -0.81573  -0.81452  -0.81122  -0.80655
 Alpha  occ. eigenvalues --   -0.80633  -0.79732  -0.79113  -0.78671  -0.78275
 Alpha  occ. eigenvalues --   -0.77591  -0.77498  -0.77426  -0.77138  -0.76951
 Alpha  occ. eigenvalues --   -0.76741  -0.76489  -0.76069  -0.75395  -0.75012
 Alpha  occ. eigenvalues --   -0.74257  -0.74112  -0.73639  -0.73164  -0.72667
 Alpha  occ. eigenvalues --   -0.72177  -0.71733  -0.71475  -0.71241  -0.71023
 Alpha  occ. eigenvalues --   -0.70625  -0.69732  -0.69413  -0.68945  -0.68021
 Alpha  occ. eigenvalues --   -0.67764  -0.67680  -0.67429  -0.67095  -0.66593
 Alpha  occ. eigenvalues --   -0.66482  -0.66431  -0.65911  -0.65331  -0.65216
 Alpha  occ. eigenvalues --   -0.64474  -0.64188  -0.63869  -0.63428  -0.63227
 Alpha  occ. eigenvalues --   -0.63171  -0.62526  -0.62382  -0.62108  -0.61385
 Alpha  occ. eigenvalues --   -0.61226  -0.61000  -0.60930  -0.60655  -0.60357
 Alpha  occ. eigenvalues --   -0.60127  -0.59886  -0.59764  -0.59367  -0.59349
 Alpha  occ. eigenvalues --   -0.58500  -0.58194  -0.57773  -0.57483  -0.57073
 Alpha  occ. eigenvalues --   -0.56534  -0.56358  -0.56271  -0.56050  -0.55505
 Alpha  occ. eigenvalues --   -0.55377  -0.54932  -0.54836  -0.54812  -0.54751
 Alpha  occ. eigenvalues --   -0.54382  -0.54160  -0.53865  -0.53672  -0.53438
 Alpha  occ. eigenvalues --   -0.53219  -0.53126  -0.53036  -0.52708  -0.52597
 Alpha  occ. eigenvalues --   -0.52489  -0.52277  -0.52044  -0.51863  -0.51623
 Alpha  occ. eigenvalues --   -0.51409  -0.51070  -0.50959  -0.50856  -0.50404
 Alpha  occ. eigenvalues --   -0.50375  -0.50341  -0.50202  -0.50122  -0.49836
 Alpha  occ. eigenvalues --   -0.49600  -0.49571  -0.49409  -0.49342  -0.49257
 Alpha  occ. eigenvalues --   -0.49088  -0.49021  -0.48810  -0.48678  -0.48454
 Alpha  occ. eigenvalues --   -0.48426  -0.48123  -0.47998  -0.47899  -0.47829
 Alpha  occ. eigenvalues --   -0.47760  -0.47694  -0.47608  -0.47384  -0.47304
 Alpha  occ. eigenvalues --   -0.47116  -0.47032  -0.46821  -0.46763  -0.46697
 Alpha  occ. eigenvalues --   -0.46656  -0.46598  -0.46448  -0.46390  -0.46364
 Alpha  occ. eigenvalues --   -0.46216  -0.46148  -0.46018  -0.45994  -0.45862
 Alpha  occ. eigenvalues --   -0.45701  -0.45541  -0.45316  -0.45282  -0.45213
 Alpha  occ. eigenvalues --   -0.45087  -0.44908  -0.44705  -0.44468  -0.44385
 Alpha  occ. eigenvalues --   -0.44197  -0.44096  -0.44009  -0.43905  -0.43860
 Alpha  occ. eigenvalues --   -0.43779  -0.43708  -0.43566  -0.43374  -0.43300
 Alpha  occ. eigenvalues --   -0.43237  -0.43121  -0.43064  -0.42935  -0.42639
 Alpha  occ. eigenvalues --   -0.42536  -0.42387  -0.42179  -0.41969  -0.41941
 Alpha  occ. eigenvalues --   -0.41828  -0.41651  -0.41524  -0.41303  -0.41261
 Alpha  occ. eigenvalues --   -0.41190  -0.41154  -0.41103  -0.40998  -0.40828
 Alpha  occ. eigenvalues --   -0.40689  -0.40610  -0.40530  -0.40463  -0.40356
 Alpha  occ. eigenvalues --   -0.40298  -0.40030  -0.39961  -0.39887  -0.39820
 Alpha  occ. eigenvalues --   -0.39717  -0.39549  -0.39435  -0.39384  -0.39346
 Alpha  occ. eigenvalues --   -0.39321  -0.39188  -0.39030  -0.38868  -0.38840
 Alpha  occ. eigenvalues --   -0.38785  -0.38577  -0.38448  -0.37923  -0.37835
 Alpha  occ. eigenvalues --   -0.37669  -0.37553  -0.37400  -0.37223  -0.37202
 Alpha  occ. eigenvalues --   -0.37093  -0.36951  -0.36913  -0.36777  -0.36563
 Alpha  occ. eigenvalues --   -0.36464  -0.35910  -0.35667  -0.35224  -0.35191
 Alpha  occ. eigenvalues --   -0.34937  -0.34680  -0.34405  -0.34347  -0.33751
 Alpha  occ. eigenvalues --   -0.32422  -0.32280  -0.31735  -0.31464  -0.31345
 Alpha  occ. eigenvalues --   -0.30082  -0.29657  -0.29190  -0.28742  -0.28628
 Alpha  occ. eigenvalues --   -0.27788  -0.27120  -0.25658  -0.25540  -0.23246
 Alpha  occ. eigenvalues --   -0.22370  -0.22164
 Alpha virt. eigenvalues --   -0.13531  -0.11859  -0.10818  -0.10402  -0.10321
 Alpha virt. eigenvalues --   -0.10078  -0.10004  -0.09842  -0.09651  -0.09220
 Alpha virt. eigenvalues --   -0.09031  -0.08788  -0.08702  -0.08392  -0.08199

 Mulliken charges:
               1
     1  C   -0.421887
     2  C   -0.060132
     3  C    0.321841
     4  C   -0.291901
     5  C   -0.538502
     6  C   -0.283741
     7  C    0.214918
     8  C   -0.402476
     9  C   -0.455029
    10  C    0.262986
    11  O   -0.454637
    12  C   -0.505134
    13  C   -0.407672
    14  C   -0.081942
    15  C    0.228318
    16  C   -0.264527
    17  C   -0.197582
    18  C   -0.313866
    19  C   -0.135233
    20  C    0.036035
    21  O   -0.129452
    22  C   -0.407781
    23  C   -0.579060
    24  C    0.402333
    25  O   -0.355585
    26  N   -0.221201
    27  C    0.079496
    28  C   -0.143642
    29  C   -0.143312
    30  C   -0.205806
    31  N    0.077515
    32  C    0.160775
    33  N   -0.411944
    34  N   -0.974339
    35  C   -0.502536
    36  C   -0.177004
    37  C    0.388678
    38  C   -0.240801
    39  C    0.454589
    40  N   -0.082862
    41  C   -0.110961
    42  C   -0.478007
    43  C   -0.075036
    44  C   -0.577861
    45  C   -0.058491
    46  Co  -0.932050
    47  C   -0.275943
    48  C    0.067432
    49  C   -0.077938
    50  C   -0.064519
    51  C   -0.313076
    52  C    0.017419
    53  C    0.328660
    54  C   -0.039930
    55  C    0.310743
    56  C   -0.511984
    57  C    0.399693
    58  C    0.045577
    59  C    0.077322
    60  C    0.238543
    61  C   -0.089413
    62  C    0.161141
    63  C    0.203224
    64  C   -0.113215
    65  C   -0.294514
    66  C   -0.133875
    67  N    0.694694
    68  N    0.343151
    69  N   -0.184585
    70  N    0.272335
    71  C   -0.369635
    72  C   -0.527440
    73  C    0.079863
    74  O   -0.541710
    75  N   -0.294335
    76  C   -0.458709
    77  C   -0.479250
    78  C   -0.455783
    79  C   -0.353020
    80  C    0.335661
    81  O   -0.636548
    82  N   -0.326555
    83  C   -0.414072
    84  C   -0.612336
    85  C   -0.358720
    86  C   -0.487703
    87  C   -0.372573
    88  C   -0.901203
    89  C   -0.245425
    90  C   -0.545322
    91  Cl  -0.690320
    92  C    1.531276
    93  C    1.419432
    94  Cl  -0.072032
    95  Cl  -0.035773
    96  H    0.089311
    97  H    0.097053
    98  H    0.094222
    99  H    0.097251
   100  H    0.164175
   101  H    0.168303
   102  H    0.160558
   103  H    0.098762
   104  H    0.110480
   105  H    0.135900
   106  H    0.147318
   107  H    0.132825
   108  H    0.264136
   109  H    0.098861
   110  H    0.088488
   111  H    0.097627
   112  H    0.100766
   113  H    0.102270
   114  H    0.128037
   115  H    0.157043
   116  H    0.255276
   117  H    0.092339
   118  H    0.114084
   119  H    0.131304
   120  H    0.276338
   121  H    0.204198
   122  H    0.117585
   123  H    0.137046
   124  H    0.092336
   125  H    0.110246
   126  H    0.098757
   127  H    0.115529
   128  H    0.167236
   129  H    0.345216
   130  H    0.437354
   131  H    0.313921
   132  H    0.238263
   133  H    0.371869
   134  H    0.123046
   135  H    0.107086
   136  H    0.112775
   137  H    0.109465
   138  H    0.102652
   139  H    0.119731
   140  H    0.152627
   141  H    0.144830
   142  H    0.110426
   143  H    0.109700
   144  H    0.090068
   145  H    0.090377
   146  H    0.126581
   147  H    0.096772
   148  H    0.096922
   149  H    0.136817
   150  H    0.129917
   151  H    0.152588
   152  H    0.145463
   153  H    0.147833
   154  H    0.134738
   155  H    0.164780
   156  H    0.166666
   157  H    0.232512
   158  H    0.125277
   159  H    0.122673
   160  H    0.130539
   161  H    0.140796
   162  H    0.137641
   163  H    0.131260
   164  H    0.111092
   165  H    0.123743
   166  H    0.095357
   167  H    0.140934
   168  H    0.288311
   169  H    0.120431
   170  H    0.137034
   171  H    0.224925
   172  H    0.095630
   173  H    0.117680
   174  H    0.112146
   175  H    0.110016
   176  H    0.122227
   177  H    0.114738
   178  H    0.117640
   179  H    0.140548
   180  H    0.115630
   181  H    0.147203
   182  H    0.147927
   183  H    0.126140
   184  H    0.137553
   185  H    0.118536
   186  H    0.116869
   187  H    0.125645
   188  H    0.152430
   189  Cl  -0.929327
   190  H    0.108916
   191  H    0.115283
   192  H    0.129170
   193  H    0.131261
   194  H    0.129118
   195  H    0.119680
   196  H    0.112771
   197  H    0.114903
   198  H    0.113200
   199  H    0.091656
   200  H    0.124730
   201  H    0.122773
   202  H    0.094405
   203  H    0.110494
   204  H    0.101656
   205  H    0.112089
   206  H    0.171746
   207  H    0.185416
   208  H    0.336992
   209  C    0.040683
   210  O   -0.479855
   211  N   -0.234174
   212  H    0.239585
   213  C   -0.191870
   214  H    0.111123
   215  H    0.140320
   216  H    0.117828
 Sum of Mulliken charges =   1.00000

 Dipole moment (field-independent basis, Debye):
    X=             -1.9433    Y=              8.0240    Z=              0.3179  Tot=              8.2620
 Quadrupole moment (field-independent basis, Debye-Ang):
   XX=           -581.2253   YY=           -496.1175   ZZ=           -592.8863
   XY=            -17.5584   XZ=            -33.6577   YZ=            -15.7204

 Normal termination of Gaussian 09 at Wed Nov 27 12:07:21 2024.
