 Gaussian 09, Revision D.01,

 ----------------------------------------------------------------------
 #p b3lyp/gen nosymm scrf=(smd,read) guess=read em=gd3 int=ultrafine ps
 eudo=read scf=xqc scfcyc=96
 ----------------------------------------------------------------------

 ------------------
 Int1p_Cl4_freq_smd
 ------------------
 Symbolic Z-matrix:
 Charge =  1 Multiplicity = 1

 SCF Done:  E(RB3LYP) =  -6098.89769295     A.U. after   15 cycles
 Normal termination of Gaussian 09 at Wed Aug 28 09:17:02 2024.
 Gaussian 09:  ES64L-G09RevD.01 24-Apr-2013

 ---------------------------------------------------------------------
 #p b3lyp/gen nosymm guess=read em=gd3 int=ultrafine scf=xqc scfcyc=96
 ---------------------------------------------------------------------

 ----------------
 Int1p_Cl4_freq_l
 ----------------
 Symbolic Z-matrix:
 Charge =  1 Multiplicity = 1

                          Input orientation:
 ---------------------------------------------------------------------
 Center     Atomic      Atomic             Coordinates (Angstroms)
 Number     Number       Type             X           Y           Z
 ---------------------------------------------------------------------
      1          6           0        7.669504   -4.060260    4.145293
      2          6           0        6.683795   -3.022412    4.725806
      3          6           0        5.868476   -2.228232    3.725137
      4          6           0        6.130363   -0.872130    3.485962
      5          6           0        4.784491   -2.820256    3.057087
      6          6           0        5.328520   -0.120768    2.622119
      7          6           0        3.977921   -2.077022    2.194278
      8          6           0        4.245777   -0.722309    1.978705
      9          6           0       -3.619099    7.103594    1.274464
     10          6           0       -2.138047    6.794139    0.998098
     11          8           0       -1.921084    6.534358   -0.412852
     12          6           0       -1.650051    5.556830    1.738262
     13          6           0       -6.675787    2.967608    5.372937
     14          6           0       -5.237166    2.584127    5.767634
     15          6           0       -4.497429    1.970603    4.605086
     16          6           0       -4.758962    0.635627    4.260283
     17          6           0       -3.609022    2.695311    3.807183
     18          6           0       -4.141449    0.028419    3.174729
     19          6           0       -2.967267    2.099608    2.719243
     20          6           0       -3.223901    0.762291    2.419730
     21          8           0       -2.559817    0.093208    1.416827
     22          6           0       -3.800256   -5.499268    4.149777
     23          6           0       -2.657764   -4.482072    4.048425
     24          6           0       -2.928008   -3.356872    3.053160
     25          8           0       -3.953309   -3.332335    2.357887
     26          7           0       -1.958041   -2.424606    2.934144
     27          6           0       -7.766068    1.059856   -2.081368
     28          6           0       -8.091423    2.016555   -0.911642
     29          6           0       -7.255496    3.311569   -0.835927
     30          6           0       -6.040493    3.233965    0.099357
     31          7           0       -4.993713    2.324972   -0.363285
     32          6           0       -3.749435    2.649521   -0.716227
     33          7           0       -3.300408    3.903720   -0.756463
     34          7           0       -2.878076    1.645785   -1.000302
     35          6           0        9.941375    5.858581    0.323185
     36          6           0        8.610033    5.394412    0.940352
     37          6           0        7.759862    4.487916    0.093205
     38          6           0        8.049335    3.948186   -1.134148
     39          6           0        6.455252    3.981635    0.455881
     40          7           0        7.002823    3.141395   -1.561437
     41          6           0        6.012239    3.137966   -0.601775
     42          6           0        5.623573    4.153541    1.576941
     43          6           0        4.780342    2.474990   -0.564318
     44          6           0        4.395861    3.498839    1.620169
     45          6           0        3.980429    2.667233    0.558554
     46         27           0        1.172074   -1.789354   -1.965290
     47          6           0       -1.362006   -2.982806   -2.220543
     48          6           0       -2.854327   -2.494582   -2.197000
     49          6           0       -2.794169   -1.284601   -3.193651
     50          6           0       -1.353600   -0.811716   -3.032713
     51          6           0       -0.866192    0.477610   -3.442884
     52          6           0        0.477435    0.792020   -3.327329
     53          6           0        1.195731    2.114296   -3.734347
     54          6           0        2.594395    1.537593   -4.097446
     55          6           0        2.673065    0.361858   -3.160624
     56          6           0        3.873536   -0.212738   -2.791074
     57          6           0        4.038247   -1.394652   -2.080297
     58          6           0        5.416400   -1.974279   -1.824222
     59          6           0        5.067905   -3.311043   -1.092441
     60          6           0        3.542091   -3.292061   -1.001810
     61          6           0        2.805043   -4.268072   -0.357447
     62          6           0        1.371171   -4.286390   -0.428188
     63          6           0        0.419158   -5.311450    0.228675
     64          6           0       -0.898277   -5.025737   -0.558533
     65          6           0       -0.750557   -3.546128   -0.919286
     66          6           0       -1.040566   -3.938078   -3.389197
     67          7           0       -0.604382   -1.719084   -2.439658
     68          7           0        1.441430   -0.100022   -2.848300
     69          7           0        3.023198   -2.166989   -1.638904
     70          7           0        0.703483   -3.343560   -1.054582
     71          6           0       -3.880470   -3.550245   -2.584022
     72          6           0       -3.181166   -1.995294   -0.756879
     73          6           0       -4.546465   -1.382243   -0.550971
     74          8           0       -4.913573   -0.360012   -1.182623
     75          7           0       -5.355568   -1.979942    0.331535
     76          6           0       -3.205486   -1.567659   -4.653774
     77          6           0       -1.865695    1.432269   -4.079240
     78          6           0        0.629493    2.952474   -4.890592
     79          6           0        1.452883    3.027696   -2.484880
     80          6           0        0.299893    3.858088   -1.964847
     81          8           0       -0.848986    3.394680   -1.835744
     82          7           0        0.564881    5.124447   -1.594472
     83          6           0        2.734631    1.041473   -5.549915
     84          6           0        6.278425   -1.058504   -0.933829
     85          6           0        6.122683   -2.148489   -3.180349
     86          6           0        5.620118   -4.577075   -1.773310
     87          6           0        3.516994   -5.318552    0.475293
     88          6           0        0.277464   -4.973971    1.728609
     89          6           0        0.758250   -6.799649    0.049872
     90          6           0       -2.182366   -5.436558    0.159837
     91         17           0        0.537705    2.399953    3.797548
     92          6           0        0.520273    1.476710    2.334194
     93          6           0        0.744692    0.150695    2.270577
     94         17           0        0.161960    2.392764    0.897023
     95         17           0        0.793238   -0.717317    0.742893
     96          1           0        7.241749   -2.327760    5.364364
     97          1           0        5.988372   -3.550686    5.391302
     98          1           0        6.963201   -0.394819    3.997047
     99          1           0        4.558202   -3.869480    3.235671
    100          1           0        5.541352    0.930567    2.449755
    101          1           0        3.138857   -2.545657    1.691835
    102          1           0        3.625181   -0.144387    1.302039
    103          1           0        8.479315   -3.582372    3.586485
    104          1           0       -1.522544    7.654350    1.297848
    105          1           0       -0.625859    5.307375    1.449676
    106          1           0       -2.287631    4.699741    1.510983
    107          1           0       -1.669376    5.728107    2.818128
    108          1           0       -2.160855    7.328039   -0.910329
    109          1           0       -4.251623    6.472106    0.639828
    110          1           0       -4.700995    3.458992    6.151272
    111          1           0       -5.269803    1.857913    6.588077
    112          1           0       -3.393794    3.733926    4.046332
    113          1           0       -5.462087    0.061735    4.859193
    114          1           0       -2.249155    2.656190    2.130454
    115          1           0       -4.347139   -1.002661    2.911912
    116          1           0       -2.201845    0.725933    0.769905
    117          1           0       -7.078866    2.244783    4.655452
    118          1           0       -2.418768   -4.039819    5.023478
    119          1           0       -1.735885   -4.970598    3.713311
    120          1           0       -2.064876   -1.646705    2.290088
    121          1           0       -1.150241   -2.423808    3.537554
    122          1           0       -4.315556   -5.575482    3.189389
    123          1           0       -9.152531    2.266001   -0.997062
    124          1           0       -7.991907    1.467972    0.036320
    125          1           0       -7.886681    4.121379   -0.450902
    126          1           0       -6.926893    3.620941   -1.835737
    127          1           0       -5.611791    4.229172    0.243387
    128          1           0       -6.352775    2.896880    1.095153
    129          1           0       -5.213917    1.328866   -0.421124
    130          1           0       -2.014699    1.905436   -1.475373
    131          1           0       -3.327018    0.774894   -1.277430
    132          1           0       -3.879802    4.695511   -0.544961
    133          1           0       -2.346185    4.069624   -1.089652
    134          1           0       -6.713037    0.774645   -2.090437
    135          1           0        8.019271    6.278251    1.219969
    136          1           0        8.821859    4.880852    1.889265
    137          1           0        8.927732    4.073641   -1.750627
    138          1           0        5.940130    4.787736    2.400386
    139          1           0        3.749189    3.618796    2.484892
    140          1           0        4.464262    1.811236   -1.361350
    141          1           0        3.026112    2.153383    0.622979
    142          1           0        9.783250    6.508842   -0.542637
    143          1           0       -3.490411   -0.520781   -2.847155
    144          1           0        3.386291    2.270005   -3.901753
    145          1           0        4.772139    0.282944   -3.141325
    146          1           0        5.475601   -3.264056   -0.075052
    147          1           0       -0.822443   -5.608387   -1.482589
    148          1           0       -1.065579   -2.927883   -0.074220
    149          1           0       -1.234835   -3.464281   -4.349845
    150          1           0       -1.620645   -4.862047   -3.335409
    151          1           0        0.022876   -4.184719   -3.357073
    152          1           0       -4.888260   -3.119577   -2.602259
    153          1           0       -3.697034   -3.971732   -3.572563
    154          1           0       -3.895880   -4.373617   -1.867920
    155          1           0       -2.449514   -1.240338   -0.467270
    156          1           0       -3.079769   -2.819057   -0.052110
    157          1           0       -6.245884   -1.537174    0.521000
    158          1           0       -3.092470   -0.664206   -5.256646
    159          1           0       -2.608183   -2.348505   -5.125606
    160          1           0       -1.715915    2.457594   -3.752178
    161          1           0       -1.806832    1.416426   -5.173100
    162          1           0       -2.891457    1.170448   -3.817697
    163          1           0        1.400014    3.651800   -5.234009
    164          1           0       -0.237805    3.544461   -4.597574
    165          1           0        0.341899    2.329982   -5.738936
    166          1           0        2.286851    3.697071   -2.720814
    167          1           0        1.790118    2.405884   -1.647249
    168          1           0       -0.175699    5.676266   -1.161794
    169          1           0        2.704400    1.864728   -6.268884
    170          1           0        1.938249    0.331858   -5.796042
    171          1           0        5.808845   -0.883248    0.033942
    172          1           0        6.447684   -0.085064   -1.406281
    173          1           0        7.256596   -1.521168   -0.760767
    174          1           0        5.526802   -2.733385   -3.885926
    175          1           0        6.309110   -1.173153   -3.638267
    176          1           0        7.094693   -2.636438   -3.062350
    177          1           0        6.706935   -4.514989   -1.876671
    178          1           0        5.403410   -5.474321   -1.195082
    179          1           0        4.501388   -4.973873    0.793656
    180          1           0        2.963189   -5.535737    1.389988
    181          1           0        3.647579   -6.270939   -0.049923
    182          1           0       -0.129661   -3.971075    1.876353
    183          1           0       -0.385790   -5.695530    2.215271
    184          1           0        1.241767   -5.019834    2.239691
    185          1           0       -0.126069   -7.404475    0.274642
    186          1           0        1.554845   -7.141406    0.712944
    187          1           0       -3.038317   -5.426575   -0.517564
    188          1           0       -2.422341   -4.778609    0.994889
    189         17           0        1.056931   -0.792178    3.691914
    190          1           0        5.189814   -4.715198   -2.768764
    191          1           0        1.059129   -7.014523   -0.980521
    192          1           0       -2.104589   -6.456201    0.549870
    193          1           0       -4.256420   -1.866191   -4.705645
    194          1           0        3.690363    0.523328   -5.667160
    195          1           0       -7.991929    1.565493   -3.026485
    196          1           0       -4.540148   -5.206959    4.898757
    197          1           0       -3.415509   -6.488049    4.398988
    198          1           0       -7.339633    2.945857    6.237347
    199          1           0       -6.722537    3.956575    4.907012
    200          1           0       -3.878765    8.146847    1.074493
    201          1           0       -3.871487    6.859722    2.306545
    202          1           0        7.160862   -4.765009    3.479334
    203          1           0        8.086871   -4.615435    4.985517
    204          1           0       10.550418    5.005431    0.005816
    205          1           0       10.501058    6.404790    1.082387
    206          1           0        6.995220    2.603040   -2.411485
    207          1           0        1.499986    5.498636   -1.637642
    208          1           0       -4.968135   -2.631829    1.017127
    209          6           0       -8.680270   -0.139536   -1.957637
    210          8           0       -9.898082   -0.042946   -2.045915
    211          7           0       -8.051442   -1.306418   -1.625818
    212          1           0       -7.052508   -1.363598   -1.764916
    213          6           0       -8.834720   -2.517703   -1.498443
    214          1           0       -8.258390   -3.268045   -0.950786
    215          1           0       -9.750507   -2.290169   -0.950552
    216          1           0       -9.123224   -2.932884   -2.472105
 ---------------------------------------------------------------------

 SCF Done:  E(RB3LYP) =  -6759.02334276     A.U. after   67 cycles

 Alpha  occ. eigenvalues -- -101.66095-101.65692-101.65637-101.65037 -63.59785
 Alpha  occ. eigenvalues --  -27.99512 -27.98980 -27.98765 -19.23582 -19.23340
 Alpha  occ. eigenvalues --  -19.19785 -19.19114 -19.17803 -19.14282 -14.44487
 Alpha  occ. eigenvalues --  -14.43685 -14.43290 -14.42688 -14.41752 -14.41410
 Alpha  occ. eigenvalues --  -14.41086 -14.39793 -14.35721 -14.35587 -14.35019
 Alpha  occ. eigenvalues --  -14.34467 -10.41229 -10.38365 -10.38241 -10.38144
 Alpha  occ. eigenvalues --  -10.37073 -10.36083 -10.32497 -10.32412 -10.30985
 Alpha  occ. eigenvalues --  -10.30978 -10.27969 -10.27564 -10.27432 -10.27277
 Alpha  occ. eigenvalues --  -10.27106 -10.26984 -10.26830 -10.26725 -10.26499
 Alpha  occ. eigenvalues --  -10.26425 -10.26370 -10.25871 -10.25727 -10.25711
 Alpha  occ. eigenvalues --  -10.25458 -10.25407 -10.25346 -10.25192 -10.25133
 Alpha  occ. eigenvalues --  -10.25085 -10.25037 -10.24929 -10.24911 -10.24896
 Alpha  occ. eigenvalues --  -10.24667 -10.24567 -10.24481 -10.24398 -10.24310
 Alpha  occ. eigenvalues --  -10.23884 -10.23872 -10.23729 -10.23494 -10.23493
 Alpha  occ. eigenvalues --  -10.23313 -10.23175 -10.23148 -10.22954 -10.22931
 Alpha  occ. eigenvalues --  -10.22922 -10.22870 -10.22844 -10.22820 -10.22670
 Alpha  occ. eigenvalues --  -10.22669 -10.22629 -10.22516 -10.22508 -10.22486
 Alpha  occ. eigenvalues --  -10.22421 -10.22313 -10.22282 -10.22268 -10.22223
 Alpha  occ. eigenvalues --  -10.22162 -10.22153 -10.22079 -10.22007 -10.22002
 Alpha  occ. eigenvalues --  -10.21866 -10.21829 -10.21616 -10.21612 -10.21287
 Alpha  occ. eigenvalues --  -10.21068 -10.20926 -10.20901  -9.57610  -9.57115
 Alpha  occ. eigenvalues --   -9.57074  -9.56464  -7.34099  -7.33635  -7.33583
 Alpha  occ. eigenvalues --   -7.33076  -7.33016  -7.33001  -7.32569  -7.32543
 Alpha  occ. eigenvalues --   -7.32530  -7.32481  -7.31908  -7.31855  -5.39644
 Alpha  occ. eigenvalues --   -1.79349  -1.78913  -1.78698  -1.14473  -1.14322
 Alpha  occ. eigenvalues --   -1.13436  -1.13019  -1.12280  -1.11697  -1.09390
 Alpha  occ. eigenvalues --   -1.03728  -1.03024  -1.01825  -1.01567  -1.00797
 Alpha  occ. eigenvalues --   -1.00613  -0.99966  -0.99946  -0.99321  -0.98927
 Alpha  occ. eigenvalues --   -0.98421  -0.98232  -0.97738  -0.93923  -0.93345
 Alpha  occ. eigenvalues --   -0.91689  -0.90798  -0.90028  -0.89323  -0.89305
 Alpha  occ. eigenvalues --   -0.88389  -0.87959  -0.87469  -0.87346  -0.86740
 Alpha  occ. eigenvalues --   -0.86034  -0.86032  -0.85710  -0.85144  -0.84754
 Alpha  occ. eigenvalues --   -0.83537  -0.83429  -0.82852  -0.82760  -0.82179
 Alpha  occ. eigenvalues --   -0.81252  -0.81032  -0.80747  -0.80584  -0.79563
 Alpha  occ. eigenvalues --   -0.79492  -0.79197  -0.79136  -0.78915  -0.78437
 Alpha  occ. eigenvalues --   -0.77933  -0.77784  -0.77388  -0.77011  -0.75582
 Alpha  occ. eigenvalues --   -0.75399  -0.75069  -0.74814  -0.74434  -0.73727
 Alpha  occ. eigenvalues --   -0.73186  -0.72946  -0.72640  -0.72483  -0.71783
 Alpha  occ. eigenvalues --   -0.71209  -0.70781  -0.70325  -0.69598  -0.69554
 Alpha  occ. eigenvalues --   -0.69460  -0.69134  -0.68669  -0.68397  -0.68230
 Alpha  occ. eigenvalues --   -0.67853  -0.67433  -0.66652  -0.66431  -0.66030
 Alpha  occ. eigenvalues --   -0.65832  -0.65637  -0.64958  -0.64913  -0.64577
 Alpha  occ. eigenvalues --   -0.64301  -0.63839  -0.63605  -0.62808  -0.62629
 Alpha  occ. eigenvalues --   -0.62558  -0.62222  -0.61880  -0.61678  -0.61227
 Alpha  occ. eigenvalues --   -0.61164  -0.61018  -0.60704  -0.60217  -0.59765
 Alpha  occ. eigenvalues --   -0.59476  -0.58942  -0.58648  -0.58526  -0.58374
 Alpha  occ. eigenvalues --   -0.58158  -0.57355  -0.57258  -0.56888  -0.56545
 Alpha  occ. eigenvalues --   -0.56364  -0.56252  -0.56078  -0.55788  -0.55493
 Alpha  occ. eigenvalues --   -0.55284  -0.55195  -0.54893  -0.54660  -0.54559
 Alpha  occ. eigenvalues --   -0.54383  -0.54125  -0.53900  -0.53481  -0.53466
 Alpha  occ. eigenvalues --   -0.53335  -0.53204  -0.52979  -0.52681  -0.52634
 Alpha  occ. eigenvalues --   -0.52339  -0.52075  -0.51961  -0.51840  -0.51781
 Alpha  occ. eigenvalues --   -0.51679  -0.51340  -0.51302  -0.51191  -0.50908
 Alpha  occ. eigenvalues --   -0.50809  -0.50725  -0.50546  -0.50415  -0.50329
 Alpha  occ. eigenvalues --   -0.50140  -0.50077  -0.49761  -0.49675  -0.49498
 Alpha  occ. eigenvalues --   -0.49296  -0.49243  -0.49138  -0.49076  -0.48971
 Alpha  occ. eigenvalues --   -0.48768  -0.48650  -0.48523  -0.48277  -0.48175
 Alpha  occ. eigenvalues --   -0.48144  -0.48107  -0.48070  -0.47803  -0.47735
 Alpha  occ. eigenvalues --   -0.47724  -0.47663  -0.47520  -0.47468  -0.47301
 Alpha  occ. eigenvalues --   -0.47211  -0.47143  -0.47093  -0.46927  -0.46850
 Alpha  occ. eigenvalues --   -0.46659  -0.46518  -0.46431  -0.46407  -0.46053
 Alpha  occ. eigenvalues --   -0.45770  -0.45744  -0.45659  -0.45606  -0.45477
 Alpha  occ. eigenvalues --   -0.45113  -0.45077  -0.44958  -0.44907  -0.44816
 Alpha  occ. eigenvalues --   -0.44657  -0.44566  -0.44515  -0.44340  -0.44170
 Alpha  occ. eigenvalues --   -0.44133  -0.44085  -0.43977  -0.43680  -0.43491
 Alpha  occ. eigenvalues --   -0.43436  -0.43311  -0.43113  -0.43058  -0.42806
 Alpha  occ. eigenvalues --   -0.42683  -0.42620  -0.42532  -0.42442  -0.42405
 Alpha  occ. eigenvalues --   -0.42328  -0.42252  -0.42086  -0.42001  -0.41954
 Alpha  occ. eigenvalues --   -0.41825  -0.41679  -0.41673  -0.41449  -0.41379
 Alpha  occ. eigenvalues --   -0.41224  -0.41099  -0.41068  -0.41010  -0.40818
 Alpha  occ. eigenvalues --   -0.40691  -0.40637  -0.40562  -0.40415  -0.40380
 Alpha  occ. eigenvalues --   -0.40209  -0.40122  -0.40092  -0.39959  -0.39686
 Alpha  occ. eigenvalues --   -0.39528  -0.39310  -0.39159  -0.38836  -0.38775
 Alpha  occ. eigenvalues --   -0.38678  -0.38528  -0.38467  -0.38369  -0.38198
 Alpha  occ. eigenvalues --   -0.38103  -0.37887  -0.37868  -0.37492  -0.37249
 Alpha  occ. eigenvalues --   -0.37014  -0.36607  -0.36266  -0.35888  -0.35395
 Alpha  occ. eigenvalues --   -0.35213  -0.34937  -0.34885  -0.34374  -0.34042
 Alpha  occ. eigenvalues --   -0.33680  -0.33430  -0.33311  -0.33222  -0.33062
 Alpha  occ. eigenvalues --   -0.32274  -0.32174  -0.31183  -0.30833  -0.30504
 Alpha  occ. eigenvalues --   -0.30105  -0.29563  -0.28639  -0.26752  -0.26483
 Alpha  occ. eigenvalues --   -0.24983  -0.20323
 Alpha virt. eigenvalues --   -0.13359  -0.12061  -0.10630  -0.10196  -0.09940
 Alpha virt. eigenvalues --   -0.09665  -0.09606  -0.09293  -0.09105  -0.08901
 Alpha virt. eigenvalues --   -0.08658  -0.08338  -0.08248  -0.07785  -0.07581

 Mulliken charges:
               1
     1  C   -0.411252
     2  C   -0.052883
     3  C    0.326774
     4  C   -0.293059
     5  C   -0.538625
     6  C   -0.287743
     7  C    0.230480
     8  C   -0.385498
     9  C   -0.445146
    10  C    0.279814
    11  O   -0.459994
    12  C   -0.495459
    13  C   -0.396435
    14  C   -0.074518
    15  C    0.227438
    16  C   -0.268404
    17  C   -0.196120
    18  C   -0.315572
    19  C   -0.130347
    20  C    0.048476
    21  O   -0.134048
    22  C   -0.397135
    23  C   -0.578798
    24  C    0.414853
    25  O   -0.358891
    26  N   -0.226172
    27  C    0.093242
    28  C   -0.134050
    29  C   -0.139092
    30  C   -0.184038
    31  N    0.071787
    32  C    0.163674
    33  N   -0.423763
    34  N   -0.991843
    35  C   -0.490367
    36  C   -0.172611
    37  C    0.387661
    38  C   -0.229383
    39  C    0.457405
    40  N   -0.095778
    41  C   -0.100897
    42  C   -0.478433
    43  C   -0.068541
    44  C   -0.578861
    45  C   -0.054409
    46  Co  -1.218267
    47  C   -0.210020
    48  C    0.124569
    49  C   -0.075500
    50  C   -0.016561
    51  C   -0.309601
    52  C    0.134518
    53  C    0.368746
    54  C   -0.033007
    55  C    0.475280
    56  C   -0.504310
    57  C    0.460655
    58  C    0.080461
    59  C    0.079634
    60  C    0.364519
    61  C   -0.063590
    62  C    0.332201
    63  C    0.258639
    64  C   -0.124149
    65  C   -0.150791
    66  C   -0.135950
    67  N    0.816891
    68  N    0.128865
    69  N   -0.370435
    70  N    0.049208
    71  C   -0.358155
    72  C   -0.499440
    73  C    0.098668
    74  O   -0.552739
    75  N   -0.303848
    76  C   -0.464119
    77  C   -0.474086
    78  C   -0.452126
    79  C   -0.357781
    80  C    0.345762
    81  O   -0.643092
    82  N   -0.336971
    83  C   -0.408699
    84  C   -0.632390
    85  C   -0.357995
    86  C   -0.466827
    87  C   -0.368710
    88  C   -0.920480
    89  C   -0.250117
    90  C   -0.534726
    91  Cl  -0.676809
    92  C    1.543602
    93  C    1.479016
    94  Cl  -0.076844
    95  Cl  -0.188607
    96  H    0.084862
    97  H    0.092304
    98  H    0.092142
    99  H    0.095878
   100  H    0.162278
   101  H    0.162271
   102  H    0.154443
   103  H    0.094289
   104  H    0.104958
   105  H    0.130949
   106  H    0.142875
   107  H    0.128833
   108  H    0.264513
   109  H    0.094886
   110  H    0.083842
   111  H    0.093419
   112  H    0.098645
   113  H    0.100291
   114  H    0.126785
   115  H    0.157823
   116  H    0.257567
   117  H    0.088157
   118  H    0.108848
   119  H    0.127693
   120  H    0.278482
   121  H    0.203200
   122  H    0.114640
   123  H    0.132710
   124  H    0.087624
   125  H    0.105513
   126  H    0.094409
   127  H    0.111601
   128  H    0.162024
   129  H    0.347800
   130  H    0.441879
   131  H    0.322370
   132  H    0.239306
   133  H    0.375749
   134  H    0.119146
   135  H    0.102479
   136  H    0.108162
   137  H    0.108170
   138  H    0.100748
   139  H    0.116097
   140  H    0.153262
   141  H    0.139491
   142  H    0.106061
   143  H    0.101169
   144  H    0.083144
   145  H    0.086665
   146  H    0.116278
   147  H    0.086452
   148  H    0.083399
   149  H    0.130861
   150  H    0.125210
   151  H    0.150133
   152  H    0.137530
   153  H    0.141057
   154  H    0.129484
   155  H    0.154112
   156  H    0.164225
   157  H    0.231270
   158  H    0.120218
   159  H    0.118463
   160  H    0.124420
   161  H    0.134696
   162  H    0.132683
   163  H    0.125031
   164  H    0.105199
   165  H    0.118083
   166  H    0.091723
   167  H    0.132155
   168  H    0.289912
   169  H    0.116948
   170  H    0.133797
   171  H    0.219571
   172  H    0.093016
   173  H    0.114231
   174  H    0.106749
   175  H    0.105288
   176  H    0.117479
   177  H    0.109104
   178  H    0.114156
   179  H    0.134287
   180  H    0.110237
   181  H    0.141093
   182  H    0.139308
   183  H    0.121458
   184  H    0.131336
   185  H    0.112463
   186  H    0.110750
   187  H    0.120304
   188  H    0.144209
   189  Cl  -0.943008
   190  H    0.103251
   191  H    0.108192
   192  H    0.122934
   193  H    0.126858
   194  H    0.125977
   195  H    0.115092
   196  H    0.108338
   197  H    0.111005
   198  H    0.109636
   199  H    0.087304
   200  H    0.121109
   201  H    0.118378
   202  H    0.090730
   203  H    0.106703
   204  H    0.097448
   205  H    0.108407
   206  H    0.171724
   207  H    0.185278
   208  H    0.338388
   209  C    0.053624
   210  O   -0.489809
   211  N   -0.247160
   212  H    0.241448
   213  C   -0.176312
   214  H    0.107757
   215  H    0.136568
   216  H    0.113378
 Sum of Mulliken charges =   1.00000

 Dipole moment (field-independent basis, Debye):
    X=             -1.3853    Y=              9.2301    Z=              1.1544  Tot=              9.4046
 Quadrupole moment (field-independent basis, Debye-Ang):
   XX=           -580.1547   YY=           -498.3222   ZZ=           -588.7288
   XY=            -17.7723   XZ=            -34.8211   YZ=            -15.5593

 Normal termination of Gaussian 09 at Thu Aug 29 11:38:51 2024.
