 Gaussian 09, Revision D.01,
 Gaussian 09:  ES64L-G09RevD.01 24-Apr-2013

 -----------------------------------
 # freq b3lyp/6-311g(d,p) guess=read
 -----------------------------------

 ---
 SF4
 ---
 Symbolic Z-matrix:
 Charge =  0 Multiplicity = 1

                         Standard orientation:
 ---------------------------------------------------------------------
 Center     Atomic      Atomic             Coordinates (Angstroms)
 Number     Number       Type             X           Y           Z
 ---------------------------------------------------------------------
      1         16           0       -0.000930   -1.247924    1.494788
      2         16           0       -1.832642    1.122854    0.061808
      3         16           0       -0.000822   -0.941207   -1.661354
      4         16           0        1.834417    1.120330    0.061828
      5         26           0        0.000932    1.216976   -1.106160
      6         26           0        1.585048   -1.108841   -0.085336
      7         26           0        0.000877    0.965193    1.303036
      8         26           0       -1.586871   -1.106591   -0.085121
 ---------------------------------------------------------------------

 SCF Done:  E(RB3LYP) =  -6647.52649752     A.U. after    1 cycles

 The electronic state is 1-A.
 Alpha  occ. eigenvalues -- -256.02568-256.01948-256.00946-256.00945 -88.82658
 Alpha  occ. eigenvalues --  -88.82658 -88.81681 -88.81594 -29.95795 -29.95067
 Alpha  occ. eigenvalues --  -29.93851 -29.93850 -25.83628 -25.83590 -25.83033
 Alpha  occ. eigenvalues --  -25.82809 -25.82475 -25.82360 -25.81792 -25.81791
 Alpha  occ. eigenvalues --  -25.81493 -25.81492 -25.81005 -25.81004  -7.91509
 Alpha  occ. eigenvalues --   -7.91508  -7.90589  -7.90505  -5.87558  -5.87557
 Alpha  occ. eigenvalues --   -5.87383  -5.87382  -5.87378  -5.87378  -5.86556
 Alpha  occ. eigenvalues --   -5.86553  -5.86478  -5.86467  -5.86447  -5.86353
 Alpha  occ. eigenvalues --   -3.41021  -3.40638  -3.39538  -3.39535  -2.19343
 Alpha  occ. eigenvalues --   -2.19053  -2.18760  -2.17877  -2.17844  -2.17743
 Alpha  occ. eigenvalues --   -2.17724  -2.17536  -2.17198  -2.17189  -2.16440
 Alpha  occ. eigenvalues --   -2.16409  -0.71412  -0.68697  -0.67722  -0.67023
 Alpha  occ. eigenvalues --   -0.36360  -0.36171  -0.35965  -0.35313  -0.33561
 Alpha  occ. eigenvalues --   -0.32756  -0.32693  -0.29988  -0.29943  -0.29227
 Alpha  occ. eigenvalues --   -0.28838  -0.27719  -0.24851  -0.23820  -0.23010
 Alpha  occ. eigenvalues --   -0.22683  -0.21932  -0.21275  -0.21239  -0.21199
 Alpha  occ. eigenvalues --   -0.20636  -0.20428  -0.20373  -0.19063
 Alpha virt. eigenvalues --   -0.10916  -0.09295  -0.09292  -0.07589  -0.06788
 Alpha virt. eigenvalues --   -0.06549  -0.05107  -0.02947  -0.02753  -0.02474
 Alpha virt. eigenvalues --   -0.01692  -0.00181   0.10857   0.11078   0.11840

 Mulliken charges:
               1
     1  S   -0.810379
     2  S   -0.813918
     3  S   -0.788665
     4  S   -0.813972
     5  Fe   0.751477
     6  Fe   0.820156
     7  Fe   0.835154
     8  Fe   0.820147
 Sum of Mulliken charges =   0.00000

 Dipole moment (field-independent basis, Debye):
    X=             -0.0009    Y=             -0.7053    Z=              0.2554  Tot=              0.7501
 Quadrupole moment (field-independent basis, Debye-Ang):
   XX=           -109.5013   YY=           -105.3872   ZZ=           -113.6862
   XY=              0.0045   XZ=             -0.0006   YZ=              0.9873

  Exact polarizability: 181.053  -0.007 165.947   0.000   0.771 141.251
 Approx polarizability: 404.478   0.011 374.902  -0.007  -7.036 378.344

                      1                      2                      3
                      A                      A                      A
 Frequencies --    132.6552               132.7168               146.5425
 Red. masses --     43.7568                44.5191                43.4061
 Frc consts  --      0.4537                 0.4620                 0.5492
 IR Inten    --      2.5008                 2.2013                 3.1695

                      4                      5                      6
                      A                      A                      A
 Frequencies --    148.5050               192.2600               261.6719
 Red. masses --     43.2744                45.2148                42.2731
 Frc consts  --      0.5623                 0.9847                 1.7054
 IR Inten    --      1.0840                 3.0385                 0.9603

                      7                      8                      9
                      A                      A                      A
 Frequencies --    274.1247               276.2307               308.9717
 Red. masses --     42.3693                40.7200                39.0365
 Frc consts  --      1.8758                 1.8306                 2.1956
 IR Inten    --     13.2976                 5.6096                 0.1169

                     10                     11                     12
                      A                      A                      A
 Frequencies --    317.0749               318.4153               326.5728
 Red. masses --     38.7442                37.3858                36.9864
 Frc consts  --      2.2950                 2.2333                 2.3241
 IR Inten    --     23.2659                26.1594                 0.0674

                     13                     14                     15
                      A                      A                      A
 Frequencies --    330.7127               338.1572               339.1805
 Red. masses --     37.3995                36.1037                37.6452
 Frc consts  --      2.4100                 2.4324                 2.5517
 IR Inten    --      0.1958                27.5731                27.3477

                     16                     17                     18
                      A                      A                      A
 Frequencies --    349.0837               358.3865               410.2070
 Red. masses --     37.3229                37.9664                38.3709
 Frc consts  --      2.6797                 2.8731                 3.8042
 IR Inten    --     33.1915                46.8595                64.3065

 - Thermochemistry -
 -------------------
 Temperature   298.150 Kelvin.  Pressure   1.00000 Atm.
 Atom     1 has atomic number 16 and mass  31.97207

 Molecular mass:   351.62804 amu.
 Principal axes and moments of inertia in atomic units:
                           1         2         3
     Eigenvalues --  2695.892232930.078103310.82682
           X            1.00000  -0.00003   0.00000
           Y            0.00003   0.99999  -0.00375
           Z            0.00000   0.00375   0.99999
 This molecule is an asymmetric top.
 Rotational symmetry number  1.
 Warning -- assumption of classical behavior for rotation
           may cause significant error
 Rotational temperatures (Kelvin)      0.03213     0.02956     0.02616
 Rotational constants (GHZ):           0.66944     0.61594     0.54510
 Zero-point vibrational energy      29676.2 (Joules/Mol)
                                    7.09278 (Kcal/Mol)
 Warning -- explicit consideration of  18 degrees of freedom as
           vibrations may cause significant error
 Vibrational temperatures:    190.86   190.95   210.84   213.67   276.62
          (Kelvin)            376.49   394.40   397.43   444.54   456.20
                              458.13   469.86   475.82   486.53   488.00
                              502.25   515.64   590.20

 Zero-point correction=                           0.011303 (Hartree/Particle)
 Thermal correction to Energy=                    0.022465
 Thermal correction to Enthalpy=                  0.023410
 Thermal correction to Gibbs Free Energy=        -0.026724
 Sum of electronic and zero-point Energies=          -6647.515194
 Sum of electronic and thermal Energies=             -6647.504032
 Sum of electronic and thermal Enthalpies=           -6647.503088
 Sum of electronic and thermal Free Energies=        -6647.553221

                     E (Thermal)             CV                S
                      KCal/Mol        Cal/Mol-Kelvin    Cal/Mol-Kelvin
 Total                   14.097             36.598            105.515
 Electronic               0.000              0.000              0.000
 Translational            0.889              2.981             43.466
 Rotational               0.889              2.981             31.637
 Vibrational             12.320             30.636             30.412
 Vibration     1          0.613              1.921              2.907
 Vibration     2          0.613              1.921              2.906
 Vibration     3          0.617              1.906              2.717
 Vibration     4          0.618              1.904              2.691
 Vibration     5          0.634              1.851              2.206
 Vibration     6          0.669              1.743              1.651
 Vibration     7          0.676              1.721              1.570
 Vibration     8          0.678              1.717              1.557
 Vibration     9          0.698              1.657              1.368
 Vibration    10          0.704              1.641              1.325
 Vibration    11          0.705              1.638              1.318
 Vibration    12          0.710              1.622              1.277
 Vibration    13          0.713              1.614              1.257
 Vibration    14          0.718              1.599              1.221
 Vibration    15          0.719              1.597              1.216
 Vibration    16          0.726              1.577              1.170
 Vibration    17          0.733              1.558              1.129
 Vibration    18          0.774              1.448              0.926

 Optimization completed.
    -- Stationary point found.
 Normal termination of Gaussian 09 at Mon Mar 18 18:59:49 2024.
