 Gaussian 09, Revision D.01,
 Gaussian 09:  ES64L-G09RevD.01 24-Apr-2013

 ----------------------------------------------------------------------
 #p BLYP/gen IOp(3/76=1000001500) IOp(3/77=0720008500) IOp(3/78=0810010
 000) pseudo=read guess=read scf=xqc
 ----------------------------------------------------------------------

 -----------------
 TS1P_out_freq11_l
 -----------------
 Symbolic Z-matrix:
 Charge =  1 Multiplicity = 1

                         Standard orientation:
 ---------------------------------------------------------------------
 Center     Atomic      Atomic             Coordinates (Angstroms)
 Number     Number       Type             X           Y           Z
 ---------------------------------------------------------------------
      1          6           0        7.593343   -4.287372    4.037047
      2          6           0        6.629277   -3.249027    4.647687
      3          6           0        5.829260   -2.417575    3.667390
      4          6           0        6.113380   -1.060846    3.464467
      5          6           0        4.738635   -2.976521    2.981954
      6          6           0        5.323067   -0.274428    2.621895
      7          6           0        3.943332   -2.197440    2.141714
      8          6           0        4.229928   -0.840972    1.965398
      9          6           0       -3.535245    7.108137    1.467409
     10          6           0       -2.065952    6.743447    1.202927
     11          8           0       -1.800447    6.616930   -0.217306
     12          6           0       -1.675257    5.410552    1.825743
     13          6           0       -6.650344    2.909008    5.456342
     14          6           0       -5.274324    2.316500    5.809234
     15          6           0       -4.504746    1.822319    4.605242
     16          6           0       -4.907151    0.638024    3.966385
     17          6           0       -3.378148    2.484337    4.109651
     18          6           0       -4.183755    0.098844    2.908543
     19          6           0       -2.640981    1.966020    3.041011
     20          6           0       -3.033192    0.756921    2.472079
     21          8           0       -2.302389    0.131329    1.470156
     22          6           0       -3.895718   -5.562584    4.008436
     23          6           0       -2.745493   -4.551102    4.002040
     24          6           0       -2.975179   -3.377968    3.053739
     25          8           0       -3.977736   -3.301833    2.332267
     26          7           0       -1.989390   -2.457295    3.002623
     27          6           0       -7.768105    1.214834   -2.045382
     28          6           0       -8.126706    2.137504   -0.857878
     29          6           0       -7.220796    3.366877   -0.646340
     30          6           0       -6.018934    3.126644    0.282463
     31          7           0       -4.961021    2.285378   -0.273418
     32          6           0       -3.760777    2.712584   -0.680403
     33          7           0       -3.505278    4.016331   -0.886007
     34          7           0       -2.781890    1.822603   -0.872280
     35          6           0       10.006015    5.695768    0.477637
     36          6           0        8.668792    5.221175    1.065769
     37          6           0        7.807325    4.416063    0.134847
     38          6           0        8.078639    4.048144   -1.158379
     39          6           0        6.514841    3.853713    0.451065
     40          7           0        7.030583    3.296197   -1.671239
     41          6           0        6.059885    3.154881   -0.702304
     42          6           0        5.703050    3.864855    1.599515
     43          6           0        4.837578    2.477111   -0.729639
     44          6           0        4.485152    3.190602    1.578621
     45          6           0        4.060719    2.499132    0.424294
     46         27           0        1.108409   -1.721394   -1.915523
     47          6           0       -1.448679   -2.882512   -2.225853
     48          6           0       -2.940243   -2.394006   -2.186323
     49          6           0       -2.870992   -1.107246   -3.090119
     50          6           0       -1.414716   -0.679862   -2.944368
     51          6           0       -0.899848    0.612095   -3.339929
     52          6           0        0.449875    0.891630   -3.250766
     53          6           0        1.193399    2.205083   -3.650131
     54          6           0        2.582211    1.605277   -4.022315
     55          6           0        2.637954    0.399630   -3.123650
     56          6           0        3.831127   -0.217400   -2.796330
     57          6           0        3.983766   -1.416935   -2.113890
     58          6           0        5.354694   -2.023144   -1.879890
     59          6           0        4.987601   -3.378025   -1.190881
     60          6           0        3.465446   -3.325150   -1.066283
     61          6           0        2.715621   -4.303726   -0.443339
     62          6           0        1.277969   -4.295844   -0.504793
     63          6           0        0.317086   -5.335057    0.116642
     64          6           0       -1.005263   -4.997164   -0.644723
     65          6           0       -0.838244   -3.506087   -0.950351
     66          6           0       -1.128652   -3.776131   -3.443148
     67          7           0       -0.683965   -1.615798   -2.391439
     68          7           0        1.402934   -0.030582   -2.799440
     69          7           0        2.963911   -2.172655   -1.663338
     70          7           0        0.617614   -3.326549   -1.086709
     71          6           0       -3.948579   -3.435192   -2.671425
     72          6           0       -3.299514   -1.996993   -0.722392
     73          6           0       -4.692341   -1.437885   -0.523933
     74          8           0       -5.078847   -0.401195   -1.103004
     75          7           0       -5.508835   -2.122953    0.297238
     76          6           0       -3.336945   -1.282358   -4.549189
     77          6           0       -1.888412    1.598761   -3.937866
     78          6           0        0.653444    3.061418   -4.807194
     79          6           0        1.458399    3.104735   -2.393765
     80          6           0        0.325069    3.965501   -1.860668
     81          8           0       -0.854582    3.576472   -1.811115
     82          7           0        0.654583    5.181833   -1.385467
     83          6           0        2.724475    1.145172   -5.487163
     84          6           0        6.215875   -1.140170   -0.954279
     85          6           0        6.073507   -2.160669   -3.234796
     86          6           0        5.484426   -4.631842   -1.934628
     87          6           0        3.415917   -5.391893    0.349270
     88          6           0        0.190919   -5.050342    1.629856
     89          6           0        0.643558   -6.818829   -0.126409
     90          6           0       -2.287207   -5.415710    0.073307
     91         17           0        1.059061    2.318401    3.862227
     92          6           0        0.792660    1.497659    2.342474
     93          6           0        0.806859    0.171707    2.153482
     94         17           0        0.445157    2.584222    1.014687
     95         17           0        0.816917   -0.635504    0.365737
     96          1           0        7.201010   -2.580651    5.301869
     97          1           0        5.925608   -3.781111    5.301371
     98          1           0        6.952937   -0.610644    3.989044
     99          1           0        4.496294   -4.026454    3.134040
    100          1           0        5.552506    0.777400    2.478293
    101          1           0        3.090750   -2.633897    1.633633
    102          1           0        3.607569   -0.235846    1.315451
    103          1           0        8.410023   -3.809665    3.488114
    104          1           0       -1.416266    7.530233    1.614501
    105          1           0       -0.640489    5.159845    1.583205
    106          1           0       -2.320824    4.607538    1.460040
    107          1           0       -1.765730    5.459575    2.914797
    108          1           0       -1.995886    7.464631   -0.638920
    109          1           0       -4.175974    6.512398    0.807860
    110          1           0       -4.679098    3.052624    6.360549
    111          1           0       -5.419122    1.470190    6.491859
    112          1           0       -3.048870    3.408370    4.577828
    113          1           0       -5.782220    0.107436    4.333828
    114          1           0       -1.759967    2.483658    2.682226
    115          1           0       -4.458025   -0.849382    2.459582
    116          1           0       -1.389076    0.463891    1.459245
    117          1           0       -7.130943    2.322011    4.665602
    118          1           0       -2.543659   -4.159033    5.006451
    119          1           0       -1.813036   -5.028843    3.679325
    120          1           0       -2.064377   -1.662762    2.376185
    121          1           0       -1.183700   -2.503491    3.606097
    122          1           0       -4.369644   -5.594487    3.024527
    123          1           0       -9.161094    2.459839   -1.006898
    124          1           0       -8.132482    1.541553    0.066156
    125          1           0       -7.813473    4.164203   -0.181279
    126          1           0       -6.872695    3.760577   -1.610637
    127          1           0       -5.568946    4.076351    0.587430
    128          1           0       -6.359803    2.645238    1.206783
    129          1           0       -5.127521    1.281389   -0.369477
    130          1           0       -1.888270    2.142689   -1.240485
    131          1           0       -2.826226    0.940734   -0.381909
    132          1           0       -4.257436    4.664935   -1.044415
    133          1           0       -2.556932    4.296377   -1.134239
    134          1           0       -6.720197    0.914303   -2.019752
    135          1           0        8.100260    6.093654    1.418100
    136          1           0        8.866363    4.623404    1.966950
    137          1           0        8.944892    4.262834   -1.767026
    138          1           0        6.027818    4.390062    2.493379
    139          1           0        3.853531    3.183641    2.462446
    140          1           0        4.511049    1.928259   -1.604188
    141          1           0        3.119694    1.960154    0.438822
    142          1           0        9.854842    6.380041   -0.363465
    143          1           0       -3.513966   -0.342885   -2.649771
    144          1           0        3.389179    2.313392   -3.801219
    145          1           0        4.734223    0.263436   -3.152351
    146          1           0        5.418213   -3.382417   -0.182340
    147          1           0       -0.949786   -5.543987   -1.592086
    148          1           0       -1.134721   -2.908090   -0.083251
    149          1           0       -1.354265   -3.259839   -4.375738
    150          1           0       -1.689913   -4.712705   -3.423511
    151          1           0       -0.060583   -4.005738   -3.443446
    152          1           0       -4.963828   -3.024558   -2.659451
    153          1           0       -3.751299   -3.770635   -3.689350
    154          1           0       -3.948758   -4.315182   -2.025284
    155          1           0       -2.595061   -1.240468   -0.370483
    156          1           0       -3.189147   -2.857442   -0.064986
    157          1           0       -6.410875   -1.708735    0.495662
    158          1           0       -3.241412   -0.345136   -5.099202
    159          1           0       -2.765417   -2.037645   -5.091965
    160          1           0       -1.676370    2.616555   -3.628163
    161          1           0       -1.881524    1.565160   -5.033211
    162          1           0       -2.905151    1.383842   -3.610408
    163          1           0        1.443940    3.739663   -5.146100
    164          1           0       -0.196799    3.676053   -4.511632
    165          1           0        0.346528    2.449777   -5.656879
    166          1           0        2.305632    3.759549   -2.623875
    167          1           0        1.785394    2.472968   -1.560689
    168          1           0       -0.074511    5.741351   -0.940630
    169          1           0        2.718469    1.987907   -6.183029
    170          1           0        1.915043    0.460682   -5.760352
    171          1           0        5.741283   -0.993595    0.015909
    172          1           0        6.392406   -0.153149   -1.393581
    173          1           0        7.189099   -1.616328   -0.791580
    174          1           0        5.481115   -2.715573   -3.967112
    175          1           0        6.278729   -1.173179   -3.656968
    176          1           0        7.037463   -2.663979   -3.118626
    177          1           0        6.570274   -4.600889   -2.057546
    178          1           0        5.248773   -5.544562   -1.388908
    179          1           0        4.409959   -5.074579    0.665985
    180          1           0        2.867902   -5.624800    1.263335
    181          1           0        3.522374   -6.330424   -0.205116
    182          1           0       -0.198292   -4.046340    1.818916
    183          1           0       -0.482423   -5.778463    2.091971
    184          1           0        1.156402   -5.131084    2.134119
    185          1           0       -0.246063   -7.423730    0.075712
    186          1           0        1.438476   -7.194405    0.519789
    187          1           0       -3.155711   -5.339580   -0.583938
    188          1           0       -2.491662   -4.803393    0.951583
    189         17           0        1.051166   -0.933792    3.459818
    190          1           0        5.030735   -4.713693   -2.925965
    191          1           0        0.938418   -6.992951   -1.166183
    192          1           0       -2.230241   -6.459210    0.398535
    193          1           0       -4.391221   -1.570250   -4.577239
    194          1           0        3.669750    0.609781   -5.611573
    195          1           0       -7.946824    1.754236   -2.981882
    196          1           0       -4.666202   -5.298903    4.736858
    197          1           0       -3.525128   -6.563011    4.231214
    198          1           0       -7.314411    2.873904    6.320121
    199          1           0       -6.572148    3.941043    5.101753
    200          1           0       -3.747248    8.168087    1.300982
    201          1           0       -3.791142    6.840523    2.492688
    202          1           0        7.070457   -4.965944    3.355102
    203          1           0        8.002801   -4.870457    4.862132
    204          1           0       10.606377    4.849930    0.126288
    205          1           0       10.573464    6.213666    1.250786
    206          1           0        7.012057    2.875823   -2.585163
    207          1           0        1.612015    5.496393   -1.356401
    208          1           0       -5.115498   -2.784154    0.964978
    209          6           0       -8.700367    0.022152   -1.997985
    210          8           0       -9.910835    0.128412   -2.155312
    211          7           0       -8.097540   -1.152677   -1.652121
    212          1           0       -7.090128   -1.200880   -1.709741
    213          6           0       -8.887544   -2.361313   -1.556799
    214          1           0       -8.320924   -3.123477   -1.015029
    215          1           0       -9.812381   -2.143155   -1.019173
    216          1           0       -9.162863   -2.759507   -2.541419
 ---------------------------------------------------------------------

 SCF Done:  E(RB+HF-LYP) =  -6096.55050055     A.U. after   65 cycles
 SCF Done:  E(RB+HF-LYP) =  -6096.55050056     a.u. after    1 cycles

 The electronic state is 1-A.
 Alpha  occ. eigenvalues -- -101.41786-101.41174-101.41063-101.38355 -19.14186
 Alpha  occ. eigenvalues --  -19.12463 -19.09067 -19.08463 -19.07547 -19.03710
 Alpha  occ. eigenvalues --  -14.34329 -14.34257 -14.33762 -14.32893 -14.32738
 Alpha  occ. eigenvalues --  -14.32540 -14.32004 -14.30917 -14.30842 -14.30584
 Alpha  occ. eigenvalues --  -14.30403 -14.30193 -10.32339 -10.29883 -10.29067
 Alpha  occ. eigenvalues --  -10.28700 -10.28159 -10.26014 -10.24233 -10.23690
 Alpha  occ. eigenvalues --  -10.23494 -10.22272 -10.21244 -10.21204 -10.20826
 Alpha  occ. eigenvalues --  -10.20625 -10.20617 -10.20298 -10.20215 -10.20038
 Alpha  occ. eigenvalues --  -10.19700 -10.19549 -10.19075 -10.18906 -10.18637
 Alpha  occ. eigenvalues --  -10.18246 -10.17969 -10.17788 -10.17750 -10.17672
 Alpha  occ. eigenvalues --  -10.17642 -10.17572 -10.17520 -10.17489 -10.17426
 Alpha  occ. eigenvalues --  -10.17350 -10.17283 -10.17232 -10.17178 -10.17038
 Alpha  occ. eigenvalues --  -10.17006 -10.16825 -10.16649 -10.16302 -10.16262
 Alpha  occ. eigenvalues --  -10.16223 -10.16167 -10.15874 -10.15802 -10.15694
 Alpha  occ. eigenvalues --  -10.15548 -10.15538 -10.15476 -10.15461 -10.15427
 Alpha  occ. eigenvalues --  -10.15355 -10.15312 -10.15223 -10.15202 -10.15138
 Alpha  occ. eigenvalues --  -10.15136 -10.15043 -10.14948 -10.14922 -10.14833
 Alpha  occ. eigenvalues --  -10.14806 -10.14628 -10.14623 -10.14619 -10.14572
 Alpha  occ. eigenvalues --  -10.14490 -10.14483 -10.14463 -10.14353 -10.14302
 Alpha  occ. eigenvalues --  -10.14130 -10.13735 -10.13314 -10.13230  -9.48817
 Alpha  occ. eigenvalues --   -9.48094  -9.48008  -9.45042  -7.27246  -7.26548
 Alpha  occ. eigenvalues --   -7.26434  -7.26196  -7.26148  -7.25479  -7.25428
 Alpha  occ. eigenvalues --   -7.25412  -7.25345  -7.23560  -7.22428  -7.22361
 Alpha  occ. eigenvalues --   -3.70870  -2.42332  -2.42247  -2.39372  -1.12407
 Alpha  occ. eigenvalues --   -1.11467  -1.10722  -1.09795  -1.09615  -1.08453
 Alpha  occ. eigenvalues --   -1.06488  -1.01747  -1.01519  -1.00524  -0.99975
 Alpha  occ. eigenvalues --   -0.98597  -0.98376  -0.98191  -0.97936  -0.97426
 Alpha  occ. eigenvalues --   -0.96585  -0.96456  -0.95635  -0.92945  -0.91272
 Alpha  occ. eigenvalues --   -0.89573  -0.88592  -0.88302  -0.87979  -0.87842
 Alpha  occ. eigenvalues --   -0.86997  -0.86671  -0.85843  -0.85679  -0.85462
 Alpha  occ. eigenvalues --   -0.85218  -0.84322  -0.84310  -0.84025  -0.83679
 Alpha  occ. eigenvalues --   -0.82868  -0.81512  -0.81489  -0.80801  -0.80781
 Alpha  occ. eigenvalues --   -0.80596  -0.80294  -0.79517  -0.78781  -0.78072
 Alpha  occ. eigenvalues --   -0.77666  -0.77574  -0.77445  -0.77375  -0.76974
 Alpha  occ. eigenvalues --   -0.76651  -0.75937  -0.75519  -0.75425  -0.75040
 Alpha  occ. eigenvalues --   -0.74785  -0.74557  -0.74023  -0.73199  -0.72672
 Alpha  occ. eigenvalues --   -0.72490  -0.71847  -0.71762  -0.71432  -0.71167
 Alpha  occ. eigenvalues --   -0.70252  -0.70197  -0.69705  -0.69536  -0.67774
 Alpha  occ. eigenvalues --   -0.67723  -0.67379  -0.66880  -0.66637  -0.66514
 Alpha  occ. eigenvalues --   -0.66437  -0.66117  -0.65943  -0.65566  -0.65125
 Alpha  occ. eigenvalues --   -0.64403  -0.64374  -0.63881  -0.63248  -0.63048
 Alpha  occ. eigenvalues --   -0.62891  -0.62583  -0.62215  -0.61534  -0.61357
 Alpha  occ. eigenvalues --   -0.61074  -0.60977  -0.60837  -0.60658  -0.60481
 Alpha  occ. eigenvalues --   -0.59999  -0.59778  -0.59711  -0.59463  -0.59119
 Alpha  occ. eigenvalues --   -0.58951  -0.58399  -0.58315  -0.57686  -0.56795
 Alpha  occ. eigenvalues --   -0.56395  -0.55975  -0.55471  -0.55320  -0.55099
 Alpha  occ. eigenvalues --   -0.55014  -0.54932  -0.54825  -0.54769  -0.54338
 Alpha  occ. eigenvalues --   -0.54104  -0.53801  -0.53532  -0.53412  -0.53301
 Alpha  occ. eigenvalues --   -0.53193  -0.53098  -0.53014  -0.52869  -0.52647
 Alpha  occ. eigenvalues --   -0.52375  -0.52128  -0.51865  -0.51807  -0.51633
 Alpha  occ. eigenvalues --   -0.51342  -0.50916  -0.50899  -0.50838  -0.50394
 Alpha  occ. eigenvalues --   -0.50317  -0.50260  -0.50103  -0.49969  -0.49790
 Alpha  occ. eigenvalues --   -0.49734  -0.49567  -0.49433  -0.49374  -0.49107
 Alpha  occ. eigenvalues --   -0.49031  -0.48899  -0.48817  -0.48523  -0.48384
 Alpha  occ. eigenvalues --   -0.48281  -0.48200  -0.48172  -0.48055  -0.47770
 Alpha  occ. eigenvalues --   -0.47762  -0.47610  -0.47444  -0.47209  -0.47049
 Alpha  occ. eigenvalues --   -0.46947  -0.46936  -0.46897  -0.46849  -0.46786
 Alpha  occ. eigenvalues --   -0.46737  -0.46497  -0.46378  -0.46325  -0.46250
 Alpha  occ. eigenvalues --   -0.46085  -0.46025  -0.45934  -0.45800  -0.45713
 Alpha  occ. eigenvalues --   -0.45628  -0.45406  -0.45382  -0.45352  -0.45269
 Alpha  occ. eigenvalues --   -0.45180  -0.45112  -0.44996  -0.44867  -0.44577
 Alpha  occ. eigenvalues --   -0.44394  -0.44212  -0.44166  -0.44031  -0.43888
 Alpha  occ. eigenvalues --   -0.43725  -0.43684  -0.43588  -0.43514  -0.43407
 Alpha  occ. eigenvalues --   -0.43335  -0.43282  -0.42955  -0.42811  -0.42640
 Alpha  occ. eigenvalues --   -0.42598  -0.42451  -0.42245  -0.42105  -0.42059
 Alpha  occ. eigenvalues --   -0.42009  -0.41734  -0.41661  -0.41545  -0.41499
 Alpha  occ. eigenvalues --   -0.41416  -0.41154  -0.41077  -0.40972  -0.40896
 Alpha  occ. eigenvalues --   -0.40788  -0.40726  -0.40563  -0.40475  -0.40245
 Alpha  occ. eigenvalues --   -0.39984  -0.39929  -0.39876  -0.39792  -0.39720
 Alpha  occ. eigenvalues --   -0.39536  -0.39468  -0.39409  -0.39397  -0.39357
 Alpha  occ. eigenvalues --   -0.39294  -0.39192  -0.38991  -0.38925  -0.38774
 Alpha  occ. eigenvalues --   -0.38518  -0.38464  -0.38303  -0.38120  -0.37914
 Alpha  occ. eigenvalues --   -0.37764  -0.37601  -0.37335  -0.37239  -0.37142
 Alpha  occ. eigenvalues --   -0.36923  -0.36858  -0.36488  -0.36356  -0.36147
 Alpha  occ. eigenvalues --   -0.36053  -0.35890  -0.35503  -0.35267  -0.35089
 Alpha  occ. eigenvalues --   -0.34840  -0.34708  -0.34045  -0.33844  -0.33542
 Alpha  occ. eigenvalues --   -0.32587  -0.32554  -0.32234  -0.31267  -0.30705
 Alpha  occ. eigenvalues --   -0.29717  -0.29674  -0.29556  -0.29517  -0.28680
 Alpha  occ. eigenvalues --   -0.28523  -0.27835  -0.26274  -0.25697  -0.25355
 Alpha  occ. eigenvalues --   -0.24239  -0.23414
 Alpha virt. eigenvalues --   -0.14452  -0.13357  -0.11356  -0.10324  -0.10263
 Alpha virt. eigenvalues --   -0.10172  -0.09793  -0.09547  -0.09480  -0.09062
 Alpha virt. eigenvalues --   -0.08810  -0.08792  -0.08714  -0.08549  -0.08246

 Mulliken charges:
               1
     1  C   -0.421203
     2  C   -0.062598
     3  C    0.313846
     4  C   -0.305504
     5  C   -0.576560
     6  C   -0.263894
     7  C    0.286988
     8  C   -0.434154
     9  C   -0.460734
    10  C    0.271644
    11  O   -0.467154
    12  C   -0.525541
    13  C   -0.399865
    14  C   -0.010454
    15  C    0.379423
    16  C   -0.297746
    17  C   -0.286776
    18  C   -0.230879
    19  C   -0.312033
    20  C    0.049510
    21  O   -0.177680
    22  C   -0.395094
    23  C   -0.599164
    24  C    0.406176
    25  O   -0.380243
    26  N   -0.222773
    27  C    0.112518
    28  C   -0.194708
    29  C   -0.038425
    30  C   -0.273235
    31  N   -0.007374
    32  C   -0.090236
    33  N   -0.376364
    34  N   -0.654908
    35  C   -0.509467
    36  C   -0.128639
    37  C    0.383908
    38  C   -0.248113
    39  C    0.476824
    40  N   -0.084862
    41  C   -0.112418
    42  C   -0.406821
    43  C   -0.206249
    44  C   -0.475569
    45  C   -0.143068
    46  Co  -1.263871
    47  C   -0.196396
    48  C    0.111931
    49  C    0.042689
    50  C   -0.271069
    51  C   -0.275188
    52  C   -0.047478
    53  C    0.366188
    54  C   -0.081419
    55  C    0.247620
    56  C   -0.481140
    57  C    0.306983
    58  C    0.046573
    59  C    0.021546
    60  C    0.289973
    61  C   -0.109319
    62  C    0.074121
    63  C    0.216337
    64  C   -0.038758
    65  C   -0.386190
    66  C   -0.197499
    67  N    0.762792
    68  N    0.496532
    69  N   -0.136230
    70  N    0.459058
    71  C   -0.371146
    72  C   -0.624472
    73  C    0.001892
    74  O   -0.408887
    75  N   -0.248296
    76  C   -0.382101
    77  C   -0.479864
    78  C   -0.433847
    79  C   -0.470477
    80  C    0.323792
    81  O   -0.598076
    82  N   -0.310540
    83  C   -0.396717
    84  C   -0.604588
    85  C   -0.345146
    86  C   -0.481965
    87  C   -0.370389
    88  C   -0.843270
    89  C   -0.237604
    90  C   -0.560586
    91  Cl  -0.872493
    92  C    1.685839
    93  C    1.017877
    94  Cl  -0.137730
    95  Cl   0.402413
    96  H    0.089324
    97  H    0.097596
    98  H    0.093656
    99  H    0.095787
   100  H    0.159575
   101  H    0.163226
   102  H    0.170718
   103  H    0.098576
   104  H    0.108383
   105  H    0.139080
   106  H    0.159101
   107  H    0.127459
   108  H    0.265160
   109  H    0.107428
   110  H    0.089878
   111  H    0.102622
   112  H    0.098875
   113  H    0.102537
   114  H    0.111944
   115  H    0.173225
   116  H    0.185041
   117  H    0.091502
   118  H    0.114832
   119  H    0.128661
   120  H    0.302664
   121  H    0.206176
   122  H    0.116588
   123  H    0.134477
   124  H    0.090227
   125  H    0.109512
   126  H    0.087091
   127  H    0.130764
   128  H    0.153399
   129  H    0.365563
   130  H    0.423059
   131  H    0.287696
   132  H    0.222633
   133  H    0.330910
   134  H    0.118289
   135  H    0.109675
   136  H    0.110857
   137  H    0.109495
   138  H    0.103416
   139  H    0.134181
   140  H    0.140056
   141  H    0.120581
   142  H    0.108857
   143  H    0.157062
   144  H    0.096750
   145  H    0.092217
   146  H    0.127928
   147  H    0.095659
   148  H    0.111810
   149  H    0.137657
   150  H    0.133513
   151  H    0.146426
   152  H    0.153006
   153  H    0.146252
   154  H    0.130730
   155  H    0.168055
   156  H    0.160252
   157  H    0.229425
   158  H    0.127033
   159  H    0.122320
   160  H    0.130932
   161  H    0.140875
   162  H    0.133437
   163  H    0.131203
   164  H    0.116005
   165  H    0.123741
   166  H    0.102271
   167  H    0.154256
   168  H    0.296377
   169  H    0.124391
   170  H    0.138632
   171  H    0.234083
   172  H    0.116096
   173  H    0.118862
   174  H    0.112612
   175  H    0.111349
   176  H    0.123978
   177  H    0.116125
   178  H    0.119347
   179  H    0.140827
   180  H    0.117710
   181  H    0.147841
   182  H    0.157353
   183  H    0.127697
   184  H    0.137401
   185  H    0.120303
   186  H    0.117506
   187  H    0.128354
   188  H    0.148107
   189  Cl  -0.747952
   190  H    0.109492
   191  H    0.115394
   192  H    0.130573
   193  H    0.136614
   194  H    0.129900
   195  H    0.117448
   196  H    0.113337
   197  H    0.113581
   198  H    0.112729
   199  H    0.094608
   200  H    0.118402
   201  H    0.117053
   202  H    0.093254
   203  H    0.110609
   204  H    0.105242
   205  H    0.112546
   206  H    0.169484
   207  H    0.188934
   208  H    0.302775
   209  C    0.028580
   210  O   -0.479238
   211  N   -0.220441
   212  H    0.238102
   213  C   -0.203779
   214  H    0.109558
   215  H    0.139050
   216  H    0.118290
 Sum of Mulliken charges =   1.00000

 Dipole moment (field-independent basis, Debye):
    X=              0.1425    Y=              5.8254    Z=             -0.3785  Tot=              5.8394
 Quadrupole moment (field-independent basis, Debye-Ang):
   XX=           -584.8283   YY=           -496.8060   ZZ=           -589.6574
   XY=            -12.4936   XZ=            -44.0337   YZ=            -13.8181

 Normal termination of Gaussian 09 at Wed Dec  4 08:05:10 2024.
