 Gaussian 09, Revision D.01,

 ----------------------------------------------------------------------
 #p b3lyp/gen nosymm scrf=(smd,read) guess=read em=gd3 int=ultrafine ps
 eudo=read scf=xqc scfcyc=96
 ----------------------------------------------------------------------

 -------------------
 TS1P_out_freq11_smd
 -------------------
 Symbolic Z-matrix:
 Charge =  1 Multiplicity = 1

 SCF Done:  E(RB3LYP) =  -6098.89152757     A.U. after    1 cycles
 Normal termination of Gaussian 09 at Thu Aug 29 14:56:19 2024.
 Gaussian 09:  ES64L-G09RevD.01 24-Apr-2013

 ---------------------------------------------------------------------
 #p b3lyp/gen nosymm guess=read em=gd3 int=ultrafine scf=xqc scfcyc=96
 ---------------------------------------------------------------------

 -----------------
 TS1P_out_freq11_l
 -----------------
 Symbolic Z-matrix:
 Charge =  1 Multiplicity = 1

                          Input orientation:
 ---------------------------------------------------------------------
 Center     Atomic      Atomic             Coordinates (Angstroms)
 Number     Number       Type             X           Y           Z
 ---------------------------------------------------------------------
      1          6           0        7.593343   -4.287372    4.037047
      2          6           0        6.629277   -3.249027    4.647687
      3          6           0        5.829260   -2.417575    3.667390
      4          6           0        6.113380   -1.060846    3.464467
      5          6           0        4.738635   -2.976521    2.981954
      6          6           0        5.323067   -0.274428    2.621895
      7          6           0        3.943332   -2.197440    2.141714
      8          6           0        4.229928   -0.840972    1.965398
      9          6           0       -3.535245    7.108137    1.467409
     10          6           0       -2.065952    6.743447    1.202927
     11          8           0       -1.800447    6.616930   -0.217306
     12          6           0       -1.675257    5.410552    1.825743
     13          6           0       -6.650344    2.909008    5.456342
     14          6           0       -5.274324    2.316500    5.809234
     15          6           0       -4.504746    1.822319    4.605242
     16          6           0       -4.907151    0.638024    3.966385
     17          6           0       -3.378148    2.484337    4.109651
     18          6           0       -4.183755    0.098844    2.908543
     19          6           0       -2.640981    1.966020    3.041011
     20          6           0       -3.033192    0.756921    2.472079
     21          8           0       -2.302389    0.131329    1.470156
     22          6           0       -3.895718   -5.562584    4.008436
     23          6           0       -2.745493   -4.551102    4.002040
     24          6           0       -2.975179   -3.377968    3.053739
     25          8           0       -3.977736   -3.301833    2.332267
     26          7           0       -1.989390   -2.457295    3.002623
     27          6           0       -7.768105    1.214834   -2.045382
     28          6           0       -8.126706    2.137504   -0.857878
     29          6           0       -7.220796    3.366877   -0.646340
     30          6           0       -6.018934    3.126644    0.282463
     31          7           0       -4.961021    2.285378   -0.273418
     32          6           0       -3.760777    2.712584   -0.680403
     33          7           0       -3.505278    4.016331   -0.886007
     34          7           0       -2.781890    1.822603   -0.872280
     35          6           0       10.006015    5.695768    0.477637
     36          6           0        8.668792    5.221175    1.065769
     37          6           0        7.807325    4.416063    0.134847
     38          6           0        8.078639    4.048144   -1.158379
     39          6           0        6.514841    3.853713    0.451065
     40          7           0        7.030583    3.296197   -1.671239
     41          6           0        6.059885    3.154881   -0.702304
     42          6           0        5.703050    3.864855    1.599515
     43          6           0        4.837578    2.477111   -0.729639
     44          6           0        4.485152    3.190602    1.578621
     45          6           0        4.060719    2.499132    0.424294
     46         27           0        1.108409   -1.721394   -1.915523
     47          6           0       -1.448679   -2.882512   -2.225853
     48          6           0       -2.940243   -2.394006   -2.186323
     49          6           0       -2.870992   -1.107246   -3.090119
     50          6           0       -1.414716   -0.679862   -2.944368
     51          6           0       -0.899848    0.612095   -3.339929
     52          6           0        0.449875    0.891630   -3.250766
     53          6           0        1.193399    2.205083   -3.650131
     54          6           0        2.582211    1.605277   -4.022315
     55          6           0        2.637954    0.399630   -3.123650
     56          6           0        3.831127   -0.217400   -2.796330
     57          6           0        3.983766   -1.416935   -2.113890
     58          6           0        5.354694   -2.023144   -1.879890
     59          6           0        4.987601   -3.378025   -1.190881
     60          6           0        3.465446   -3.325150   -1.066283
     61          6           0        2.715621   -4.303726   -0.443339
     62          6           0        1.277969   -4.295844   -0.504793
     63          6           0        0.317086   -5.335057    0.116642
     64          6           0       -1.005263   -4.997164   -0.644723
     65          6           0       -0.838244   -3.506087   -0.950351
     66          6           0       -1.128652   -3.776131   -3.443148
     67          7           0       -0.683965   -1.615798   -2.391439
     68          7           0        1.402934   -0.030582   -2.799440
     69          7           0        2.963911   -2.172655   -1.663338
     70          7           0        0.617614   -3.326549   -1.086709
     71          6           0       -3.948579   -3.435192   -2.671425
     72          6           0       -3.299514   -1.996993   -0.722392
     73          6           0       -4.692341   -1.437885   -0.523933
     74          8           0       -5.078847   -0.401195   -1.103004
     75          7           0       -5.508835   -2.122953    0.297238
     76          6           0       -3.336945   -1.282358   -4.549189
     77          6           0       -1.888412    1.598761   -3.937866
     78          6           0        0.653444    3.061418   -4.807194
     79          6           0        1.458399    3.104735   -2.393765
     80          6           0        0.325069    3.965501   -1.860668
     81          8           0       -0.854582    3.576472   -1.811115
     82          7           0        0.654583    5.181833   -1.385467
     83          6           0        2.724475    1.145172   -5.487163
     84          6           0        6.215875   -1.140170   -0.954279
     85          6           0        6.073507   -2.160669   -3.234796
     86          6           0        5.484426   -4.631842   -1.934628
     87          6           0        3.415917   -5.391893    0.349270
     88          6           0        0.190919   -5.050342    1.629856
     89          6           0        0.643558   -6.818829   -0.126409
     90          6           0       -2.287207   -5.415710    0.073307
     91         17           0        1.059061    2.318401    3.862227
     92          6           0        0.792660    1.497659    2.342474
     93          6           0        0.806859    0.171707    2.153482
     94         17           0        0.445157    2.584222    1.014687
     95         17           0        0.816917   -0.635504    0.365737
     96          1           0        7.201010   -2.580651    5.301869
     97          1           0        5.925608   -3.781111    5.301371
     98          1           0        6.952937   -0.610644    3.989044
     99          1           0        4.496294   -4.026454    3.134040
    100          1           0        5.552506    0.777400    2.478293
    101          1           0        3.090750   -2.633897    1.633633
    102          1           0        3.607569   -0.235846    1.315451
    103          1           0        8.410023   -3.809665    3.488114
    104          1           0       -1.416266    7.530233    1.614501
    105          1           0       -0.640489    5.159845    1.583205
    106          1           0       -2.320824    4.607538    1.460040
    107          1           0       -1.765730    5.459575    2.914797
    108          1           0       -1.995886    7.464631   -0.638920
    109          1           0       -4.175974    6.512398    0.807860
    110          1           0       -4.679098    3.052624    6.360549
    111          1           0       -5.419122    1.470190    6.491859
    112          1           0       -3.048870    3.408370    4.577828
    113          1           0       -5.782220    0.107436    4.333828
    114          1           0       -1.759967    2.483658    2.682226
    115          1           0       -4.458025   -0.849382    2.459582
    116          1           0       -1.389076    0.463891    1.459245
    117          1           0       -7.130943    2.322011    4.665602
    118          1           0       -2.543659   -4.159033    5.006451
    119          1           0       -1.813036   -5.028843    3.679325
    120          1           0       -2.064377   -1.662762    2.376185
    121          1           0       -1.183700   -2.503491    3.606097
    122          1           0       -4.369644   -5.594487    3.024527
    123          1           0       -9.161094    2.459839   -1.006898
    124          1           0       -8.132482    1.541553    0.066156
    125          1           0       -7.813473    4.164203   -0.181279
    126          1           0       -6.872695    3.760577   -1.610637
    127          1           0       -5.568946    4.076351    0.587430
    128          1           0       -6.359803    2.645238    1.206783
    129          1           0       -5.127521    1.281389   -0.369477
    130          1           0       -1.888270    2.142689   -1.240485
    131          1           0       -2.826226    0.940734   -0.381909
    132          1           0       -4.257436    4.664935   -1.044415
    133          1           0       -2.556932    4.296377   -1.134239
    134          1           0       -6.720197    0.914303   -2.019752
    135          1           0        8.100260    6.093654    1.418100
    136          1           0        8.866363    4.623404    1.966950
    137          1           0        8.944892    4.262834   -1.767026
    138          1           0        6.027818    4.390062    2.493379
    139          1           0        3.853531    3.183641    2.462446
    140          1           0        4.511049    1.928259   -1.604188
    141          1           0        3.119694    1.960154    0.438822
    142          1           0        9.854842    6.380041   -0.363465
    143          1           0       -3.513966   -0.342885   -2.649771
    144          1           0        3.389179    2.313392   -3.801219
    145          1           0        4.734223    0.263436   -3.152351
    146          1           0        5.418213   -3.382417   -0.182340
    147          1           0       -0.949786   -5.543987   -1.592086
    148          1           0       -1.134721   -2.908090   -0.083251
    149          1           0       -1.354265   -3.259839   -4.375738
    150          1           0       -1.689913   -4.712705   -3.423511
    151          1           0       -0.060583   -4.005738   -3.443446
    152          1           0       -4.963828   -3.024558   -2.659451
    153          1           0       -3.751299   -3.770635   -3.689350
    154          1           0       -3.948758   -4.315182   -2.025284
    155          1           0       -2.595061   -1.240468   -0.370483
    156          1           0       -3.189147   -2.857442   -0.064986
    157          1           0       -6.410875   -1.708735    0.495662
    158          1           0       -3.241412   -0.345136   -5.099202
    159          1           0       -2.765417   -2.037645   -5.091965
    160          1           0       -1.676370    2.616555   -3.628163
    161          1           0       -1.881524    1.565160   -5.033211
    162          1           0       -2.905151    1.383842   -3.610408
    163          1           0        1.443940    3.739663   -5.146100
    164          1           0       -0.196799    3.676053   -4.511632
    165          1           0        0.346528    2.449777   -5.656879
    166          1           0        2.305632    3.759549   -2.623875
    167          1           0        1.785394    2.472968   -1.560689
    168          1           0       -0.074511    5.741351   -0.940630
    169          1           0        2.718469    1.987907   -6.183029
    170          1           0        1.915043    0.460682   -5.760352
    171          1           0        5.741283   -0.993595    0.015909
    172          1           0        6.392406   -0.153149   -1.393581
    173          1           0        7.189099   -1.616328   -0.791580
    174          1           0        5.481115   -2.715573   -3.967112
    175          1           0        6.278729   -1.173179   -3.656968
    176          1           0        7.037463   -2.663979   -3.118626
    177          1           0        6.570274   -4.600889   -2.057546
    178          1           0        5.248773   -5.544562   -1.388908
    179          1           0        4.409959   -5.074579    0.665985
    180          1           0        2.867902   -5.624800    1.263335
    181          1           0        3.522374   -6.330424   -0.205116
    182          1           0       -0.198292   -4.046340    1.818916
    183          1           0       -0.482423   -5.778463    2.091971
    184          1           0        1.156402   -5.131084    2.134119
    185          1           0       -0.246063   -7.423730    0.075712
    186          1           0        1.438476   -7.194405    0.519789
    187          1           0       -3.155711   -5.339580   -0.583938
    188          1           0       -2.491662   -4.803393    0.951583
    189         17           0        1.051166   -0.933792    3.459818
    190          1           0        5.030735   -4.713693   -2.925965
    191          1           0        0.938418   -6.992951   -1.166183
    192          1           0       -2.230241   -6.459210    0.398535
    193          1           0       -4.391221   -1.570250   -4.577239
    194          1           0        3.669750    0.609781   -5.611573
    195          1           0       -7.946824    1.754236   -2.981882
    196          1           0       -4.666202   -5.298903    4.736858
    197          1           0       -3.525128   -6.563011    4.231214
    198          1           0       -7.314411    2.873904    6.320121
    199          1           0       -6.572148    3.941043    5.101753
    200          1           0       -3.747248    8.168087    1.300982
    201          1           0       -3.791142    6.840523    2.492688
    202          1           0        7.070457   -4.965944    3.355102
    203          1           0        8.002801   -4.870457    4.862132
    204          1           0       10.606377    4.849930    0.126288
    205          1           0       10.573464    6.213666    1.250786
    206          1           0        7.012057    2.875823   -2.585163
    207          1           0        1.612015    5.496393   -1.356401
    208          1           0       -5.115498   -2.784154    0.964978
    209          6           0       -8.700367    0.022152   -1.997985
    210          8           0       -9.910835    0.128412   -2.155312
    211          7           0       -8.097540   -1.152677   -1.652121
    212          1           0       -7.090128   -1.200880   -1.709741
    213          6           0       -8.887544   -2.361313   -1.556799
    214          1           0       -8.320924   -3.123477   -1.015029
    215          1           0       -9.812381   -2.143155   -1.019173
    216          1           0       -9.162863   -2.759507   -2.541419
 ---------------------------------------------------------------------

 SCF Done:  E(RB3LYP) =  -6758.99437724     A.U. after   66 cycles

 Alpha  occ. eigenvalues -- -101.66705-101.66672-101.66594-101.64744 -63.60821
 Alpha  occ. eigenvalues --  -28.01281 -28.00551 -28.00261 -19.25197 -19.22876
 Alpha  occ. eigenvalues --  -19.19255 -19.18224 -19.17790 -19.13676 -14.43318
 Alpha  occ. eigenvalues --  -14.43316 -14.42821 -14.41944 -14.41574 -14.41372
 Alpha  occ. eigenvalues --  -14.41283 -14.39075 -14.36029 -14.35721 -14.35005
 Alpha  occ. eigenvalues --  -14.34887 -10.40331 -10.39725 -10.38732 -10.37753
 Alpha  occ. eigenvalues --  -10.36504 -10.36163 -10.31877 -10.31852 -10.31732
 Alpha  occ. eigenvalues --  -10.30043 -10.27895 -10.27489 -10.27441 -10.27354
 Alpha  occ. eigenvalues --  -10.27131 -10.27114 -10.27103 -10.26715 -10.26592
 Alpha  occ. eigenvalues --  -10.26529 -10.26187 -10.25838 -10.25734 -10.25648
 Alpha  occ. eigenvalues --  -10.25646 -10.25573 -10.25507 -10.25388 -10.25382
 Alpha  occ. eigenvalues --  -10.25231 -10.25207 -10.25134 -10.25123 -10.24985
 Alpha  occ. eigenvalues --  -10.24876 -10.24461 -10.24407 -10.24302 -10.23937
 Alpha  occ. eigenvalues --  -10.23901 -10.23861 -10.23727 -10.23470 -10.23361
 Alpha  occ. eigenvalues --  -10.23335 -10.23283 -10.23120 -10.23090 -10.23076
 Alpha  occ. eigenvalues --  -10.22991 -10.22929 -10.22882 -10.22837 -10.22824
 Alpha  occ. eigenvalues --  -10.22692 -10.22595 -10.22587 -10.22581 -10.22498
 Alpha  occ. eigenvalues --  -10.22432 -10.22419 -10.22414 -10.22357 -10.22332
 Alpha  occ. eigenvalues --  -10.22313 -10.22279 -10.22212 -10.22197 -10.22114
 Alpha  occ. eigenvalues --  -10.22069 -10.21838 -10.21706 -10.21697 -10.21433
 Alpha  occ. eigenvalues --  -10.21046 -10.21021 -10.20988  -9.58211  -9.58054
 Alpha  occ. eigenvalues --   -9.58014  -9.55951  -7.34710  -7.34587  -7.34523
 Alpha  occ. eigenvalues --   -7.33667  -7.33617  -7.33514  -7.33476  -7.33460
 Alpha  occ. eigenvalues --   -7.33432  -7.32568  -7.31378  -7.31324  -5.41042
 Alpha  occ. eigenvalues --   -1.80935  -1.80219  -1.79931  -1.15692  -1.13987
 Alpha  occ. eigenvalues --   -1.12825  -1.12358  -1.12288  -1.10904  -1.08745
 Alpha  occ. eigenvalues --   -1.03925  -1.02961  -1.01982  -1.00820  -1.00668
 Alpha  occ. eigenvalues --   -1.00244  -1.00166  -0.99449  -0.99036  -0.98763
 Alpha  occ. eigenvalues --   -0.98656  -0.97637  -0.97548  -0.94029  -0.93857
 Alpha  occ. eigenvalues --   -0.91044  -0.90514  -0.90247  -0.89233  -0.89151
 Alpha  occ. eigenvalues --   -0.87856  -0.87685  -0.87584  -0.86834  -0.86695
 Alpha  occ. eigenvalues --   -0.86250  -0.86217  -0.86093  -0.85170  -0.84949
 Alpha  occ. eigenvalues --   -0.83779  -0.83399  -0.82805  -0.82616  -0.82442
 Alpha  occ. eigenvalues --   -0.81764  -0.81258  -0.80941  -0.80588  -0.79828
 Alpha  occ. eigenvalues --   -0.79818  -0.79710  -0.79238  -0.78317  -0.78195
 Alpha  occ. eigenvalues --   -0.77636  -0.77589  -0.77248  -0.77146  -0.75780
 Alpha  occ. eigenvalues --   -0.75487  -0.74912  -0.74429  -0.74266  -0.73625
 Alpha  occ. eigenvalues --   -0.73347  -0.72606  -0.72495  -0.72011  -0.71900
 Alpha  occ. eigenvalues --   -0.71793  -0.70825  -0.70384  -0.70058  -0.69572
 Alpha  occ. eigenvalues --   -0.68892  -0.68599  -0.68457  -0.68447  -0.68299
 Alpha  occ. eigenvalues --   -0.67367  -0.66870  -0.66665  -0.66534  -0.66421
 Alpha  occ. eigenvalues --   -0.65965  -0.65869  -0.65179  -0.64792  -0.64492
 Alpha  occ. eigenvalues --   -0.64052  -0.63602  -0.63469  -0.63232  -0.62836
 Alpha  occ. eigenvalues --   -0.62349  -0.61779  -0.61547  -0.61423  -0.61325
 Alpha  occ. eigenvalues --   -0.61140  -0.60892  -0.60505  -0.60282  -0.59962
 Alpha  occ. eigenvalues --   -0.59867  -0.59222  -0.58726  -0.58354  -0.58209
 Alpha  occ. eigenvalues --   -0.57855  -0.57397  -0.56976  -0.56699  -0.56604
 Alpha  occ. eigenvalues --   -0.56430  -0.56330  -0.55752  -0.55717  -0.55430
 Alpha  occ. eigenvalues --   -0.55072  -0.54834  -0.54806  -0.54724  -0.54489
 Alpha  occ. eigenvalues --   -0.54081  -0.53763  -0.53656  -0.53510  -0.53326
 Alpha  occ. eigenvalues --   -0.53235  -0.53017  -0.52885  -0.52662  -0.52520
 Alpha  occ. eigenvalues --   -0.52435  -0.52163  -0.52011  -0.51647  -0.51457
 Alpha  occ. eigenvalues --   -0.51396  -0.51373  -0.51219  -0.51134  -0.51064
 Alpha  occ. eigenvalues --   -0.50889  -0.50582  -0.50561  -0.50463  -0.50404
 Alpha  occ. eigenvalues --   -0.50096  -0.50065  -0.49832  -0.49775  -0.49495
 Alpha  occ. eigenvalues --   -0.49426  -0.49356  -0.49140  -0.48863  -0.48705
 Alpha  occ. eigenvalues --   -0.48550  -0.48485  -0.48367  -0.48193  -0.48172
 Alpha  occ. eigenvalues --   -0.48123  -0.48071  -0.47834  -0.47814  -0.47792
 Alpha  occ. eigenvalues --   -0.47708  -0.47629  -0.47538  -0.47447  -0.47371
 Alpha  occ. eigenvalues --   -0.47161  -0.47093  -0.46992  -0.46913  -0.46725
 Alpha  occ. eigenvalues --   -0.46692  -0.46506  -0.46360  -0.46244  -0.45972
 Alpha  occ. eigenvalues --   -0.45830  -0.45772  -0.45589  -0.45487  -0.45466
 Alpha  occ. eigenvalues --   -0.45420  -0.45057  -0.44922  -0.44880  -0.44731
 Alpha  occ. eigenvalues --   -0.44721  -0.44678  -0.44434  -0.44396  -0.44279
 Alpha  occ. eigenvalues --   -0.44116  -0.44005  -0.43942  -0.43592  -0.43557
 Alpha  occ. eigenvalues --   -0.43362  -0.43354  -0.43286  -0.43231  -0.43055
 Alpha  occ. eigenvalues --   -0.42883  -0.42806  -0.42689  -0.42617  -0.42545
 Alpha  occ. eigenvalues --   -0.42430  -0.42191  -0.42113  -0.42051  -0.41851
 Alpha  occ. eigenvalues --   -0.41819  -0.41733  -0.41706  -0.41613  -0.41514
 Alpha  occ. eigenvalues --   -0.41460  -0.41287  -0.41144  -0.41051  -0.40977
 Alpha  occ. eigenvalues --   -0.40752  -0.40723  -0.40640  -0.40524  -0.40380
 Alpha  occ. eigenvalues --   -0.40306  -0.40208  -0.40108  -0.39863  -0.39801
 Alpha  occ. eigenvalues --   -0.39664  -0.39389  -0.39027  -0.38974  -0.38803
 Alpha  occ. eigenvalues --   -0.38651  -0.38490  -0.38458  -0.38375  -0.38054
 Alpha  occ. eigenvalues --   -0.37980  -0.37595  -0.37445  -0.37130  -0.36960
 Alpha  occ. eigenvalues --   -0.36754  -0.36506  -0.36207  -0.36017  -0.35749
 Alpha  occ. eigenvalues --   -0.35253  -0.35190  -0.35029  -0.34814  -0.34678
 Alpha  occ. eigenvalues --   -0.34512  -0.34286  -0.33929  -0.33471  -0.33340
 Alpha  occ. eigenvalues --   -0.32357  -0.31588  -0.31112  -0.31088  -0.30737
 Alpha  occ. eigenvalues --   -0.30595  -0.29749  -0.28833  -0.27018  -0.26640
 Alpha  occ. eigenvalues --   -0.25068  -0.21250
 Alpha virt. eigenvalues --   -0.16249  -0.13296  -0.12501  -0.11218  -0.10575
 Alpha virt. eigenvalues --   -0.10101  -0.09964  -0.09471  -0.09185  -0.08891
 Alpha virt. eigenvalues --   -0.08581  -0.08467  -0.08182  -0.07731  -0.07622

 Mulliken charges:
               1
     1  C   -0.409754
     2  C   -0.054416
     3  C    0.318202
     4  C   -0.311425
     5  C   -0.573473
     6  C   -0.268115
     7  C    0.291442
     8  C   -0.402830
     9  C   -0.448948
    10  C    0.288392
    11  O   -0.472084
    12  C   -0.514824
    13  C   -0.387137
    14  C   -0.003407
    15  C    0.382546
    16  C   -0.304949
    17  C   -0.287894
    18  C   -0.227452
    19  C   -0.307619
    20  C    0.056397
    21  O   -0.175741
    22  C   -0.383694
    23  C   -0.600492
    24  C    0.424503
    25  O   -0.381164
    26  N   -0.227360
    27  C    0.126329
    28  C   -0.185778
    29  C   -0.037286
    30  C   -0.251417
    31  N   -0.017348
    32  C   -0.083942
    33  N   -0.385156
    34  N   -0.663245
    35  C   -0.497468
    36  C   -0.123752
    37  C    0.383217
    38  C   -0.233118
    39  C    0.479210
    40  N   -0.095612
    41  C   -0.107732
    42  C   -0.410063
    43  C   -0.198935
    44  C   -0.477246
    45  C   -0.131612
    46  Co  -1.411538
    47  C   -0.174928
    48  C    0.164681
    49  C    0.050374
    50  C   -0.205639
    51  C   -0.267789
    52  C    0.063842
    53  C    0.418380
    54  C   -0.078186
    55  C    0.408091
    56  C   -0.479522
    57  C    0.348699
    58  C    0.083921
    59  C    0.029106
    60  C    0.428356
    61  C   -0.095758
    62  C    0.232995
    63  C    0.285403
    64  C   -0.052832
    65  C   -0.271660
    66  C   -0.176717
    67  N    0.860102
    68  N    0.235642
    69  N   -0.329439
    70  N    0.255712
    71  C   -0.361671
    72  C   -0.600240
    73  C    0.014027
    74  O   -0.416255
    75  N   -0.258673
    76  C   -0.379701
    77  C   -0.471958
    78  C   -0.431022
    79  C   -0.473426
    80  C    0.327225
    81  O   -0.606106
    82  N   -0.320692
    83  C   -0.388954
    84  C   -0.625711
    85  C   -0.348290
    86  C   -0.460807
    87  C   -0.364474
    88  C   -0.873165
    89  C   -0.239632
    90  C   -0.544026
    91  Cl  -0.825590
    92  C    1.690391
    93  C    1.072329
    94  Cl  -0.102751
    95  Cl   0.210803
    96  H    0.084721
    97  H    0.092543
    98  H    0.092046
    99  H    0.095931
   100  H    0.157954
   101  H    0.157743
   102  H    0.159076
   103  H    0.094618
   104  H    0.102931
   105  H    0.131454
   106  H    0.154132
   107  H    0.123453
   108  H    0.266428
   109  H    0.104244
   110  H    0.085244
   111  H    0.098948
   112  H    0.096865
   113  H    0.101956
   114  H    0.105412
   115  H    0.176173
   116  H    0.182842
   117  H    0.087821
   118  H    0.108740
   119  H    0.125993
   120  H    0.301024
   121  H    0.202214
   122  H    0.114476
   123  H    0.130039
   124  H    0.085455
   125  H    0.104592
   126  H    0.083214
   127  H    0.125965
   128  H    0.147762
   129  H    0.369006
   130  H    0.427274
   131  H    0.292145
   132  H    0.223181
   133  H    0.333864
   134  H    0.115742
   135  H    0.104739
   136  H    0.105897
   137  H    0.108726
   138  H    0.101016
   139  H    0.124902
   140  H    0.145729
   141  H    0.109779
   142  H    0.104676
   143  H    0.146296
   144  H    0.085842
   145  H    0.085572
   146  H    0.113673
   147  H    0.085176
   148  H    0.092554
   149  H    0.131193
   150  H    0.126548
   151  H    0.146879
   152  H    0.144229
   153  H    0.140000
   154  H    0.124267
   155  H    0.155268
   156  H    0.158750
   157  H    0.228219
   158  H    0.121027
   159  H    0.116839
   160  H    0.123015
   161  H    0.134053
   162  H    0.126680
   163  H    0.123882
   164  H    0.108204
   165  H    0.118230
   166  H    0.097928
   167  H    0.140349
   168  H    0.297053
   169  H    0.118809
   170  H    0.135101
   171  H    0.223884
   172  H    0.111678
   173  H    0.114040
   174  H    0.106866
   175  H    0.105068
   176  H    0.117208
   177  H    0.109353
   178  H    0.114404
   179  H    0.133400
   180  H    0.110624
   181  H    0.141065
   182  H    0.142118
   183  H    0.122480
   184  H    0.130572
   185  H    0.113209
   186  H    0.110486
   187  H    0.122988
   188  H    0.137616
   189  Cl  -0.742113
   190  H    0.104045
   191  H    0.108688
   192  H    0.124010
   193  H    0.129841
   194  H    0.125579
   195  H    0.113150
   196  H    0.108741
   197  H    0.110146
   198  H    0.109782
   199  H    0.090680
   200  H    0.115374
   201  H    0.112192
   202  H    0.090727
   203  H    0.106837
   204  H    0.101307
   205  H    0.108812
   206  H    0.170857
   207  H    0.189255
   208  H    0.303413
   209  C    0.041556
   210  O   -0.489519
   211  N   -0.233628
   212  H    0.241064
   213  C   -0.188013
   214  H    0.106198
   215  H    0.134864
   216  H    0.114095
 Sum of Mulliken charges =   1.00000

 Dipole moment (field-independent basis, Debye):
    X=              0.3204    Y=              8.2694    Z=              3.1778  Tot=              8.8648
 Quadrupole moment (field-independent basis, Debye-Ang):
   XX=           -586.0186   YY=           -501.3345   ZZ=           -585.5085
   XY=            -11.1496   XZ=            -43.1487   YZ=            -13.5501

 Normal termination of Gaussian 09 at Fri Aug 30 14:22:50 2024.
