 Gaussian 16, Revision C.01,
 Gaussian 16:  ES64L-G16RevC.01  3-Jul-2019

 ---------------
 #P M052X/6-31G*
 ---------------

 ----------------------------
 Cl2F2_iso1_oct_vaccum_M05-2x
 ----------------------------
 Symbolic Z-matrix:
 Charge =  0 Multiplicity = 1

                         Standard orientation:
 ---------------------------------------------------------------------
 Center     Atomic      Atomic             Coordinates (Angstroms)
 Number     Number       Type             X           Y           Z
 ---------------------------------------------------------------------
      1          6           0       -0.664671    0.416996    0.000370
      2          6           0        0.664928    0.416545    0.000088
      3         17           0       -1.664567   -0.978556    0.000040
      4          9           0       -1.331738    1.570705    0.000073
      5          9           0        1.331920    1.570530   -0.000163
      6         17           0        1.664381   -0.978642   -0.000154
 ---------------------------------------------------------------------

 SCF Done:  E(RM052X) =  -1196.14805724     A.U. after   15 cycles

 The electronic state is 1-A.
 Alpha  occ. eigenvalues -- -102.81079-102.81072 -25.35538 -25.35528 -10.74884
 Alpha  occ. eigenvalues --  -10.74768  -9.85639  -9.85631  -7.58277  -7.58268
 Alpha  occ. eigenvalues --   -7.57597  -7.57595  -7.57589  -7.57587  -1.41142
 Alpha  occ. eigenvalues --   -1.39394  -1.03660  -0.99141  -0.87487  -0.72225
 Alpha  occ. eigenvalues --   -0.68034  -0.64350  -0.62347  -0.58771  -0.58336
 Alpha  occ. eigenvalues --   -0.52985  -0.49645  -0.46402  -0.43940  -0.43403
 Alpha  occ. eigenvalues --   -0.41033  -0.31936
 Alpha virt. eigenvalues --    0.03719   0.04833   0.07669   0.13035   0.28592
 Alpha virt. eigenvalues --    0.31413   0.37742   0.41443   0.43141   0.44807
 Alpha virt. eigenvalues --    0.46318   0.50398   0.52111   0.54069   0.57409

 Mulliken charges:
               1
     1  C    0.158626
     2  C    0.158639
     3  Cl   0.081876
     4  F   -0.240595
     5  F   -0.240803
     6  Cl   0.082258
 Sum of Mulliken charges =  -0.00000

 Dipole moment (field-independent basis, Debye):
    X=              0.0014    Y=             -0.7490    Z=              0.0002  Tot=              0.7490
 Quadrupole moment (field-independent basis, Debye-Ang):
   XX=            -45.5392   YY=            -45.7098   ZZ=            -45.1153
   XY=             -0.0047   XZ=              0.0001   YZ=              0.0006

 Normal termination of Gaussian 16 at Thu Jul 10 13:57:03 2025.
