 Gaussian 16, Revision C.01,
 Gaussian 16:  ES64L-G16RevC.01  3-Jul-2019

 ---------------------------------------
 #P M052X/6-31G* scrf(SMD,solvent=water)
 ---------------------------------------

 -------------------------
 Cl2F2_iso1_wat_M05-2x.gjf
 -------------------------
 Symbolic Z-matrix:
 Charge =  0 Multiplicity = 1

                         Standard orientation:
 ---------------------------------------------------------------------
 Center     Atomic      Atomic             Coordinates (Angstroms)
 Number     Number       Type             X           Y           Z
 ---------------------------------------------------------------------
      1          6           0        0.664725    0.416411    0.000085
      2          6           0       -0.664775    0.416208    0.000198
      3         17           0        1.664522   -0.978329   -0.000145
      4          9           0        1.332037    1.570384   -0.000184
      5          9           0       -1.332018    1.570410    0.000064
      6         17           0       -1.664514   -0.978311    0.000108
 ---------------------------------------------------------------------

 SCF Done:  E(RM052X) =  -1196.14332870     A.U. after   11 cycles

 The electronic state is 1-A.
 Alpha  occ. eigenvalues -- -102.80781-102.80778 -25.35376 -25.35370 -10.74515
 Alpha  occ. eigenvalues --  -10.74398  -9.85338  -9.85335  -7.57974  -7.57970
 Alpha  occ. eigenvalues --   -7.57299  -7.57295  -7.57293  -7.57290  -1.40961
 Alpha  occ. eigenvalues --   -1.39229  -1.03333  -0.98842  -0.87146  -0.72080
 Alpha  occ. eigenvalues --   -0.67883  -0.64106  -0.62083  -0.58585  -0.58172
 Alpha  occ. eigenvalues --   -0.52793  -0.49435  -0.46104  -0.43678  -0.43102
 Alpha  occ. eigenvalues --   -0.40776  -0.31550
 Alpha virt. eigenvalues --    0.04166   0.05224   0.08073   0.13353   0.28894
 Alpha virt. eigenvalues --    0.31734   0.38103   0.41724   0.43549   0.45160
 Alpha virt. eigenvalues --    0.46534   0.50667   0.52451   0.54400   0.58037

 Mulliken charges:
               1
     1  C    0.168389
     2  C    0.168369
     3  Cl   0.079674
     4  F   -0.248076
     5  F   -0.248228
     6  Cl   0.079872
 Sum of Mulliken charges =  -0.00000

 Dipole moment (field-independent basis, Debye):
    X=             -0.0004    Y=             -0.8300    Z=              0.0002  Tot=              0.8300
 Quadrupole moment (field-independent basis, Debye-Ang):
   XX=            -45.6860   YY=            -45.8701   ZZ=            -45.0850
   XY=              0.0030   XZ=              0.0001   YZ=              0.0004

 Normal termination of Gaussian 16 at Thu Jul 10 14:46:30 2025.
