 Gaussian 16, Revision C.01,
 Gaussian 16:  ES64L-G16RevC.01  3-Jul-2019

 -------------------------------------------
 #P M052X/6-31G* scrf(SMD,solvent=n-octanol)
 -------------------------------------------

 ---------------------
 Cl2F2_iso1_oct_M05-2x
 ---------------------
 Symbolic Z-matrix:
 Charge =  0 Multiplicity = 1

                         Standard orientation:
 ---------------------------------------------------------------------
 Center     Atomic      Atomic             Coordinates (Angstroms)
 Number     Number       Type             X           Y           Z
 ---------------------------------------------------------------------
      1          6           0       -0.664671    0.416996    0.000370
      2          6           0        0.664928    0.416545    0.000088
      3         17           0       -1.664567   -0.978556    0.000040
      4          9           0       -1.331738    1.570705    0.000073
      5          9           0        1.331920    1.570530   -0.000163
      6         17           0        1.664381   -0.978642   -0.000154
 ---------------------------------------------------------------------

 SCF Done:  E(RM052X) =  -1196.14896018     A.U. after   11 cycles

 The electronic state is 1-A.
 Alpha  occ. eigenvalues -- -102.80817-102.80810 -25.35409 -25.35400 -10.74570
 Alpha  occ. eigenvalues --  -10.74454  -9.85373  -9.85366  -7.58010  -7.58002
 Alpha  occ. eigenvalues --   -7.57333  -7.57328  -7.57326  -7.57321  -1.41004
 Alpha  occ. eigenvalues --   -1.39269  -1.03362  -0.98866  -0.87194  -0.72108
 Alpha  occ. eigenvalues --   -0.67912  -0.64143  -0.62132  -0.58614  -0.58207
 Alpha  occ. eigenvalues --   -0.52815  -0.49457  -0.46137  -0.43707  -0.43133
 Alpha  occ. eigenvalues --   -0.40801  -0.31605
 Alpha virt. eigenvalues --    0.04100   0.05162   0.08005   0.13318   0.28862
 Alpha virt. eigenvalues --    0.31700   0.38065   0.41696   0.43499   0.45115
 Alpha virt. eigenvalues --    0.46519   0.50641   0.52404   0.54355   0.57937

 Mulliken charges:
               1
     1  C    0.166599
     2  C    0.166613
     3  Cl   0.080016
     4  F   -0.246721
     5  F   -0.246939
     6  Cl   0.080432
 Sum of Mulliken charges =  -0.00000

 Dipole moment (field-independent basis, Debye):
    X=              0.0016    Y=             -0.8170    Z=              0.0002  Tot=              0.8170
 Quadrupole moment (field-independent basis, Debye-Ang):
   XX=            -45.6596   YY=            -45.8391   ZZ=            -45.0916
   XY=             -0.0051   XZ=              0.0001   YZ=              0.0006

 Normal termination of Gaussian 16 at Thu Jul 10 13:57:00 2025.
