 Gaussian 09, Revision D.01,
 Gaussian 09:  ES64L-G09RevD.01 24-Apr-2013

 -------------------------------------------------------------------
 #p opt freq b3lyp/gen nosymm em=gd3 int=ultrafine scf=xqc scfcyc=96
 -------------------------------------------------------------------

 -----------------
 tetrafluoroethene
 -----------------
 Symbolic Z-matrix:
 Charge =  0 Multiplicity = 1

 SCF Done:  E(RB3LYP) =  -475.472721895     A.U. after   13 cycles
 SCF Done:  E(RB3LYP) =  -475.536119248     A.U. after   11 cycles
 SCF Done:  E(RB3LYP) =  -475.644600142     A.U. after   11 cycles
 SCF Done:  E(RB3LYP) =  -475.676921012     A.U. after   12 cycles
 SCF Done:  E(RB3LYP) =  -475.679629212     A.U. after   10 cycles
 SCF Done:  E(RB3LYP) =  -475.680190103     A.U. after   10 cycles
 SCF Done:  E(RB3LYP) =  -475.680557124     A.U. after    9 cycles
 SCF Done:  E(RB3LYP) =  -475.680561777     A.U. after    8 cycles
 Optimization completed.
    -- Stationary point found.
 Normal termination of Gaussian 09 at Thu Jun 13 10:45:08 2024.

 ------------------------------------------------------------------
 #P Geom=AllCheck Guess=TCheck SCRF=Check GenChk RB3LYP/ChkBas Freq
 ------------------------------------------------------------------

 Structure from the checkpoint file:  "tetrafluoroethene.chk"
 -----------------
 tetrafluoroethene
 -----------------
 Charge =  0 Multiplicity = 1

                          Input orientation:
 ---------------------------------------------------------------------
 Center     Atomic      Atomic             Coordinates (Angstroms)
 Number     Number       Type             X           Y           Z
 ---------------------------------------------------------------------
      1          6           0       49.831289   35.712705   32.632990
      2          6           0       50.643929   36.385309   31.838080
      3          9           0       49.672433   35.994005   33.912753
      4          9           0       49.097631   34.693008   32.227338
      5          9           0       50.803933   36.105295   30.558265
      6          9           0       51.376786   37.404679   32.245573
 ---------------------------------------------------------------------

 SCF Done:  E(RB3LYP) =  -475.680561777     A.U. after    1 cycles

 Alpha  occ. eigenvalues --  -24.74991 -24.74986 -24.74983 -24.74982 -10.37182
 Alpha  occ. eigenvalues --  -10.37090  -1.32933  -1.31523  -1.27287  -1.26217
 Alpha  occ. eigenvalues --   -0.82764  -0.68501  -0.64166  -0.63410  -0.59083
 Alpha  occ. eigenvalues --   -0.57704  -0.53405  -0.50742  -0.48530  -0.47895
 Alpha  occ. eigenvalues --   -0.47555  -0.47131  -0.45574  -0.27891
 Alpha virt. eigenvalues --   -0.00692   0.00851   0.01834   0.02516   0.05012
 Alpha virt. eigenvalues --    0.08287   0.08411   0.08726   0.09187   0.10631
 Alpha virt. eigenvalues --    0.18020   0.18347   0.19043   0.20032   0.23166

 Mulliken charges:
               1
     1  C    0.610569
     2  C    0.610687
     3  F   -0.305289
     4  F   -0.305368
     5  F   -0.305301
     6  F   -0.305298
 Sum of Mulliken charges =   0.00000

 Dipole moment (field-independent basis, Debye):
    X=              0.0002    Y=             -0.0005    Z=             -0.0021  Tot=              0.0022
 Quadrupole moment (field-independent basis, Debye-Ang):
   XX=            -30.8967   YY=            -31.4644   ZZ=            -32.5905
   XY=             -1.3986   XZ=              0.3672   YZ=             -0.5819

  Exact polarizability:  26.032   7.019  26.483  -4.786  -1.320  30.510
 Approx polarizability:  37.251  11.151  37.393  -8.248  -3.118  43.474

                      1                      2                      3
                      A                      A                      A
 Frequencies --    199.1958               209.8172               394.6353
 Red. masses --     18.9984                18.1647                18.9444
 Frc consts  --      0.4441                 0.4712                 1.7383
 IR Inten    --      0.0000                 4.7503                 0.0000

                      4                      5                      6
                      A                      A                      A
 Frequencies --    418.4541               549.2149               551.3304
 Red. masses --     13.1639                17.4736                17.4322
 Frc consts  --      1.3581                 3.1054                 3.1220
 IR Inten    --      3.3943                 2.3805                 0.0006

                      7                      8                      9
                      A                      A                      A
 Frequencies --    575.7800               787.8979              1174.7247
 Red. masses --     12.3033                18.6102                14.0110
 Frc consts  --      2.4032                 6.8068                11.3918
 IR Inten    --      0.0000                 0.0001               393.8589

                     10                     11                     12
                      A                      A                      A
 Frequencies --   1311.2531              1316.8124              1899.9877
 Red. masses --     13.5950                12.9356                12.1824
 Frc consts  --     13.7721                13.2156                25.9111
 IR Inten    --    442.0957                 0.8282                 0.0001

 - Thermochemistry -
 -------------------
 Temperature   298.150 Kelvin.  Pressure   1.00000 Atm.
 Atom     1 has atomic number  6 and mass  12.00000

 Molecular mass:    99.99361 amu.
 Principal axes and moments of inertia in atomic units:
                           1         2         3
     Eigenvalues --   329.96781 558.63572 888.60353
           X            0.61528   0.26003   0.74419
           Y            0.50932   0.58942  -0.62704
           Z           -0.60169   0.76483   0.23022
 This molecule is an asymmetric top.
 Rotational symmetry number  1.
 Rotational temperatures (Kelvin)      0.26249     0.15505     0.09747
 Rotational constants (GHZ):           5.46945     3.23062     2.03099
 Zero-point vibrational energy      56159.3 (Joules/Mol)
                                   13.42240 (Kcal/Mol)
 Warning -- explicit consideration of   7 degrees of freedom as
           vibrations may cause significant error
 Vibrational temperatures:    286.60   301.88   567.79   602.06   790.20
          (Kelvin)            793.24   828.42  1133.61  1690.16  1886.60
                             1894.60  2733.66

 Zero-point correction=                           0.021390 (Hartree/Particle)
 Thermal correction to Energy=                    0.026612
 Thermal correction to Enthalpy=                  0.027556
 Thermal correction to Gibbs Free Energy=        -0.007735
 Sum of electronic and zero-point Energies=           -475.659172
 Sum of electronic and thermal Energies=              -475.653950
 Sum of electronic and thermal Enthalpies=            -475.653006
 Sum of electronic and thermal Free Energies=         -475.688297

                     E (Thermal)             CV                S
                      KCal/Mol        Cal/Mol-Kelvin    Cal/Mol-Kelvin
 Total                   16.699             17.095             74.277
 Electronic               0.000              0.000              0.000
 Translational            0.889              2.981             39.718
 Rotational               0.889              2.981             26.596
 Vibrational             14.922             11.133              7.963
 Vibration     1          0.637              1.841              2.141
 Vibration     2          0.642              1.826              2.045
 Vibration     3          0.762              1.482              0.983
 Vibration     4          0.781              1.430              0.897
 Vibration     5          0.904              1.141              0.546
 Vibration     6          0.907              1.137              0.541
 Vibration     7          0.932              1.084              0.493

 Optimization completed.
    -- Stationary point found.
 Normal termination of Gaussian 09 at Thu Jun 13 10:45:27 2024.
